 &FCI NORB=13,NELEC=17,MS2=0,
  ORBSYM=1,1,1,1,1,1,1,1,1,1,1,1,1,
  ISYM=1,
 &END
4.235426189232259 1 1 1 1
-0.00017737594295680055 2 1 1 1
0.22356670161854303 2 1 2 1
3.788518554039296 2 2 1 1
-0.00017683898369861916 2 2 2 1
4.235879661270595 2 2 2 2
0.0018830961331450648 3 1 1 1
-8.352641000807887e-05 3 1 2 1
0.0016323413730751322 3 1 2 2
0.2238485260786218 3 1 3 1
-0.001078123658349163 3 2 1 1
0.00012533125101147892 3 2 2 1
-0.0012460405478689237 3 2 2 2
-1.3697381579040898e-05 3 2 3 1
0.22386174810370707 3 2 3 2
3.7918822757640984 3 3 1 1
-0.0001535843618361006 3 3 2 1
3.792078939329067 3 3 2 2
0.0018892020291290334 3 3 3 1
-0.0012496709716786915 3 3 3 2
4.243732704583902 3 3 3 3
-0.004920911986446331 4 1 1 1
-0.00020452977003608224 4 1 2 1
-0.004277508000599496 4 1 2 2
2.8443259379225877e-05 4 1 3 1
-3.1467035498733112e-06 4 1 3 2
-0.004253315960282926 4 1 3 3
3.378206770706478e-05 4 1 4 1
-0.0025516242973106827 4 2 1 1
-0.00033708312475097307 4 2 2 1
-0.0029421102743750443 4 2 2 2
-7.385389589720577e-06 4 2 3 1
3.3960940557911056e-05 4 2 3 2
-0.002542967750147414 4 2 3 3
1.9541073466199126e-05 4 2 4 1
2.677244928679748e-05 4 2 4 2
0.0005345622746349308 4 3 1 1
1.2566700559094636e-06 4 3 2 1
0.0005400743843609676 4 3 2 2
-0.0003169397466330698 4 3 3 1
-0.00018953747084444756 4 3 3 2
0.0006651186970267868 4 3 3 3
5.979670110555538e-06 4 3 4 1
-7.362295089746839e-06 4 3 4 2
3.665579384214242e-05 4 3 4 3
0.1837722919984845 4 4 1 1
0.0001292119092772349 4 4 2 1
0.18368325092925536 4 4 2 2
-4.7145206004484315e-05 4 4 3 1
-4.64000880544095e-05 4 4 3 2
0.18363776998285705 4 4 3 3
2.2068730345655826e-05 4 4 4 1
-5.837685973198352e-06 4 4 4 2
-1.0323086445045054e-05 4 4 4 3
0.8437671239690523 4 4 4 4
-0.00036074298178659256 5 1 1 1
-4.816951197872669e-05 5 1 2 1
-0.0003135246994180731 5 1 2 2
8.817000095174234e-05 5 1 3 1
-2.901329015485025e-06 5 1 3 2
-0.00030508930043163636 5 1 3 3
8.82827961971318e-06 5 1 4 1
6.214104360114529e-06 5 1 4 2
-2.7214378251288163e-07 5 1 4 3
-9.089424212581777e-06 5 1 4 4
3.6180872769956277e-06 5 1 5 1
-0.0005555439173198279 5 2 1 1
-2.7459240329946556e-05 5 2 2 1
-0.000633623600254238 5 2 2 2
-3.462390128606185e-06 5 2 3 1
9.252832215399637e-05 5 2 3 2
-0.0005528584798370636 5 2 3 3
2.3988550751952777e-06 5 2 4 1
4.0796238415945e-06 5 2 4 2
-3.7485970387031365e-06 5 2 4 3
-7.5683537730181224e-06 5 2 4 4
6.647998984513876e-07 5 2 5 1
2.618602811471036e-06 5 2 5 2
0.0011625360744454921 5 3 1 1
-4.0101747153199176e-07 5 3 2 1
0.001163406615355108 5 3 2 2
-1.9378059906711444e-05 5 3 3 1
-4.3715079330317195e-05 5 3 3 2
0.0013515127169327057 5 3 3 3
-1.2419340403508749e-06 5 3 4 1
-2.8075198072556237e-06 5 3 4 2
6.540968846440992e-06 5 3 4 3
9.739348389800286e-06 5 3 4 4
-1.2872336938027435e-07 5 3 5 1
-1.2693898042260413e-06 5 3 5 2
2.2430749946719532e-06 5 3 5 3
0.0011593972261713175 5 4 1 1
7.624389527445254e-06 5 4 2 1
0.0011520065576494179 5 4 2 2
-4.4804573497991365e-06 5 4 3 1
-4.920221344023854e-06 5 4 3 2
0.0011551038095214692 5 4 3 3
-6.50688366144419e-07 5 4 4 1
7.615432459905528e-08 5 4 4 2
8.803784192484833e-07 5 4 4 3
-0.004416736628317883 5 4 4 4
4.224365641532787e-07 5 4 5 1
-1.8099893885394216e-06 5 4 5 2
-2.45484730299274e-07 5 4 5 3
0.032836600870292214 5 4 5 4
0.17855850464376238 5 5 1 1
9.929498739021256e-05 5 5 2 1
0.17845995564830208 5 5 2 2
-5.174085081130107e-05 5 5 3 1
-3.307650346301957e-05 5 5 3 2
0.17841383453238657 5 5 3 3
2.2073209155972432e-05 5 5 4 1
-3.5080095395234673e-06 5 5 4 2
-1.0687911795838432e-05 5 5 4 3
0.7860009174075506 5 5 4 4
-1.2390127600252752e-05 5 5 5 1
-9.078182227022373e-06 5 5 5 2
1.0862152121150805e-05 5 5 5 3
-0.004232446517082461 5 5 5 4
0.8580580154792385 5 5 5 5
0.0011664233600510252 6 1 1 1
-4.926434970522016e-06 6 1 2 1
0.0010078957317352485 6 1 2 2
0.00020538213439436306 6 1 3 1
-7.861907436632655e-07 6 1 3 2
0.0010034519984079937 6 1 3 3
-7.11067452515949e-06 6 1 4 1
-4.272582788854474e-06 6 1 4 2
-8.286813388070571e-07 6 1 4 3
2.433627324036733e-05 6 1 4 4
-1.9405371862476537e-06 6 1 5 1
-5.464017199671143e-07 6 1 5 2
6.259486343177242e-07 6 1 5 3
1.0536639172689032e-06 6 1 5 4
2.5102996215124016e-05 6 1 5 5
2.5671853674737795e-06 6 1 6 1
-0.00013274145129956596 6 2 1 1
7.877724368881999e-05 6 2 2 1
-0.00016691566262906345 6 2 2 2
2.368349992473763e-07 6 2 3 1
0.00020049775858797556 6 2 3 2
-0.00014653126106097797 6 2 3 3
-5.527294663608257e-07 6 2 4 1
9.364548888786283e-07 6 2 4 2
-2.6752585304568842e-06 6 2 4 3
4.023690648614306e-06 6 2 4 4
1.1358832168246866e-07 6 2 5 1
-1.1445094151283384e-06 6 2 5 2
-3.2108343895700153e-07 6 2 5 3
-6.65548943168873e-09 6 2 5 4
3.054968944463296e-06 6 2 5 5
1.356216324815412e-07 6 2 6 1
3.492625916454226e-06 6 2 6 2
0.00265114647354271 6 3 1 1
-1.3021510520296676e-06 6 3 2 1
0.0026502660007828153 6 3 2 2
7.556630882879931e-05 6 3 3 1
-1.8555138149332947e-05 6 3 3 2
0.0030719717132121596 6 3 3 3
-3.1862248979258838e-06 6 3 4 1
-3.105006909828967e-07 6 3 4 2
-2.9238445632358473e-06 6 3 4 3
-2.775502702443723e-07 6 3 4 4
9.425860906611825e-07 6 3 5 1
-6.294330970179646e-07 6 3 5 2
1.3975433657496155e-06 6 3 5 3
-9.858596793391107e-08 6 3 5 4
-1.435889484202837e-06 6 3 5 5
7.627799359664433e-07 6 3 6 1
9.014430025610679e-07 6 3 6 2
6.26236392581768e-06 6 3 6 3
-0.0014706039959310763 6 4 1 1
-6.236711545659307e-06 6 4 2 1
-0.001453062756100204 6 4 2 2
2.555205863605728e-06 6 4 3 1
1.6590497291761045e-06 6 4 3 2
-0.0014593451967703259 6 4 3 3
5.967663706618406e-07 6 4 4 1
-9.516508253745679e-07 6 4 4 2
-5.49917924058395e-07 6 4 4 3
0.0027863007155546193 6 4 4 4
-3.7680141449240374e-08 6 4 5 1
-2.52683239413768e-07 6 4 5 2
-2.1613379820382538e-07 6 4 5 3
0.0020170488420184476 6 4 5 4
0.00922927010141817 6 4 5 5
-1.2904246795841857e-07 6 4 6 1
-1.6360274489114194e-06 6 4 6 2
-3.2359208124983505e-07 6 4 6 3
0.027840225670780667 6 4 6 4
-0.0002890485840267671 6 5 1 1
-3.1087929040217047e-06 6 5 2 1
-0.00029274229325711995 6 5 2 2
6.155243635026383e-07 6 5 3 1
-3.8410317328672433e-07 6 5 3 2
-0.00028461515147951843 6 5 3 3
-6.123138832317132e-08 6 5 4 1
9.195367098705952e-07 6 5 4 2
3.650362993180589e-07 6 5 4 3
-0.0027889461531628995 6 5 4 4
1.1201515958910759e-06 6 5 5 1
2.4294158476787423e-07 6 5 5 2
-2.8174156449607256e-07 6 5 5 3
-0.003406071585663496 6 5 5 4
0.0005709713610255532 6 5 5 5
-7.171853168177427e-07 6 5 6 1
9.606610739294472e-08 6 5 6 2
4.1719670793621707e-07 6 5 6 3
-0.006600613324173905 6 5 6 4
0.030248489697773412 6 5 6 5
0.17885313247472995 6 6 1 1
0.00010356225835164238 6 6 2 1
0.17876040464946719 6 6 2 2
-6.118403675577257e-05 6 6 3 1
-3.8707629065378436e-05 6 6 3 2
0.17871808443756798 6 6 3 3
2.1676496910453683e-05 6 6 4 1
-4.2304094967352525e-06 6 6 4 2
-8.630398237886966e-06 6 6 4 3
0.7772120450210349 6 6 4 4
-8.84367619962232e-06 6 6 5 1
-8.70638310480698e-06 6 6 5 2
9.380110561102379e-06 6 6 5 3
0.009294773901152346 6 6 5 4
0.7798805101044316 6 6 5 5
2.914706148382332e-05 6 6 6 1
5.096214450877836e-06 6 6 6 2
-2.2551494295086326e-06 6 6 6 3
0.002970420386195577 6 6 6 4
0.0005564523222095774 6 6 6 5
0.8237488323601664 6 6 6 6
0.000956840254154243 7 1 1 1
-2.48861966186886e-06 7 1 2 1
0.0008248660560569568 7 1 2 2
0.00017034052511795655 7 1 3 1
-1.8141452250216954e-06 7 1 3 2
0.0008278511154228215 7 1 3 3
-1.2239297317317454e-06 7 1 4 1
1.3820482449242912e-06 7 1 4 2
-3.846607780382549e-06 7 1 4 3
-1.6490017317592777e-05 7 1 4 4
8.009415112334198e-07 7 1 5 1
8.809466621472718e-08 7 1 5 2
-4.242318104905019e-08 7 1 5 3
8.01436968315605e-07 7 1 5 4
-1.6193223785822588e-05 7 1 5 5
4.858361914011538e-07 7 1 6 1
7.08931618786531e-07 7 1 6 2
2.0194672313762297e-06 7 1 6 3
5.97411920167123e-07 7 1 6 4
9.755434418183267e-08 7 1 6 5
-1.5501328117946367e-05 7 1 6 6
2.0211952572665196e-06 7 1 7 1
2.9519034744403985e-05 7 2 1 1
6.132177890245786e-05 7 2 2 1
4.262469378093846e-05 7 2 2 2
-1.6398752885165115e-06 7 2 3 1
0.0001717057618926978 7 2 3 2
4.283677709946493e-05 7 2 3 3
1.9168848125028565e-06 7 2 4 1
6.808984318337573e-07 7 2 4 2
2.1504718160567705e-06 7 2 4 3
-1.7297913158540713e-05 7 2 4 4
5.316054766146328e-07 7 2 5 1
8.965484674649883e-07 7 2 5 2
3.9878681038280644e-07 7 2 5 3
4.5770033672711016e-07 7 2 5 4
-1.8195057471682325e-05 7 2 5 5
-3.311855015845881e-07 7 2 6 1
-1.3188593160418646e-06 7 2 6 2
-5.793312023950363e-07 7 2 6 3
7.661586176740981e-08 7 2 6 4
5.973407297016779e-07 7 2 6 5
-1.5923055099079728e-05 7 2 6 6
-5.465213443422698e-07 7 2 7 1
1.9641849327364115e-06 7 2 7 2
0.0021872722731705193 7 3 1 1
-9.482096917990473e-07 7 3 2 1
0.0021877339984689896 7 3 2 2
6.577664267941827e-05 7 3 3 1
8.353100239897088e-06 7 3 3 2
0.0025337900203464816 7 3 3 3
-5.255930410786666e-06 7 3 4 1
-2.720926098064641e-06 7 3 4 2
1.8689192751342968e-06 7 3 4 3
1.3834842752119853e-05 7 3 4 4
-4.4629306423175436e-07 7 3 5 1
4.321252976519741e-07 7 3 5 2
1.6056888723869653e-06 7 3 5 3
-2.4418849336400574e-07 7 3 5 4
1.3297474849865791e-05 7 3 5 5
1.2514057214879046e-06 7 3 6 1
-1.7995611500880525e-06 7 3 6 2
2.846296936214866e-06 7 3 6 3
-4.4315458195817144e-07 7 3 6 4
5.884040078069437e-08 7 3 6 5
1.3259991574312034e-05 7 3 6 6
4.3439278916387347e-07 7 3 7 1
1.1849231326787514e-06 7 3 7 2
5.015726059671624e-06 7 3 7 3
0.0017585195194531485 7 4 1 1
7.200434978607617e-06 7 4 2 1
0.001754622081714855 7 4 2 2
-4.542799826056641e-06 7 4 3 1
2.414736959825654e-07 7 4 3 2
0.0017522516302927486 7 4 3 3
-4.815147792807092e-07 7 4 4 1
-2.3706311967144086e-07 7 4 4 2
-2.271357796214796e-07 7 4 4 3
0.00010515005921772971 7 4 4 4
4.424143347816639e-09 7 4 5 1
9.250240260704479e-08 7 4 5 2
5.9279973650155643e-08 7 4 5 3
0.0017825000704457068 7 4 5 4
-0.00544224963681356 7 4 5 5
3.5007526557265886e-07 7 4 6 1
3.306980251499672e-07 7 4 6 2
1.1133617978687754e-07 7 4 6 3
-0.0046472161013031135 7 4 6 4
-0.0013876701697139514 7 4 6 5
0.003003636823966811 7 4 6 6
-7.997373475625703e-07 7 4 7 1
-1.5599782895042658e-06 7 4 7 2
2.1006684013454303e-07 7 4 7 3
0.022096053571193854 7 4 7 4
0.0010279368261696602 7 5 1 1
3.760340445822824e-06 7 5 2 1
0.0010195398900142696 7 5 2 2
-6.761766329772064e-07 7 5 3 1
1.0683591933095655e-06 7 5 3 2
0.0010187054888810701 7 5 3 3
-7.925551545706143e-08 7 5 4 1
6.893844311941239e-07 7 5 4 2
-3.509694263596169e-07 7 5 4 3
-0.007411482069894186 7 5 4 4
-1.049917261569784e-06 7 5 5 1
-5.98506038419839e-07 7 5 5 2
6.755101767000327e-07 7 5 5 3
0.002798783933567311 7 5 5 4
-0.003585849073818145 7 5 5 5
-8.657155726420249e-09 7 5 6 1
-3.386553901640601e-09 7 5 6 2
1.0600221963818141e-07 7 5 6 3
-0.006585412244910707 7 5 6 4
-0.00019431287326666523 7 5 6 5
-0.003085839669659983 7 5 6 6
-1.27660579207855e-06 7 5 7 1
-1.294818016157122e-06 7 5 7 2
5.199533144128101e-07 7 5 7 3
0.005337377799347617 7 5 7 4
0.02717400283208637 7 5 7 5
0.0016342375527106465 7 6 1 1
3.776608431391349e-06 7 6 2 1
0.0016308223214159582 7 6 2 2
1.4673450352601612e-06 7 6 3 1
-1.049244878073863e-06 7 6 3 2
0.0016344551761970885 7 6 3 3
-2.951913452961909e-07 7 6 4 1
6.40737462017624e-08 7 6 4 2
-5.13142692688431e-08 7 6 4 3
0.015948001736242993 7 6 4 4
-2.828627284577622e-07 7 6 5 1
-3.509042480530961e-07 7 6 5 2
1.7796751139840049e-07 7 6 5 3
0.007826942117576995 7 6 5 4
0.006666558350433979 7 6 5 5
-5.707906563358914e-07 7 6 6 1
-9.291163137797263e-07 7 6 6 2
6.900000533165515e-07 7 6 6 3
-0.0011969776070275707 7 6 6 4
-0.00021949960868581763 7 6 6 5
0.005879329416420703 7 6 6 6
9.140900153343622e-07 7 6 7 1
-5.059249748529375e-07 7 6 7 2
-1.6090620127903718e-07 7 6 7 3
-0.00013305361850472937 7 6 7 4
0.0024568800546088173 7 6 7 5
0.03393251794657491 7 6 7 6
0.17667025570906206 7 7 1 1
0.00010065253574907576 7 7 2 1
0.17657993501324878 7 7 2 2
-4.697477871629674e-05 7 7 3 1
-3.0167528850641608e-05 7 7 3 2
0.17652959686349734 7 7 3 3
2.102562222105928e-05 7 7 4 1
-4.5394316985008825e-06 7 7 4 2
-1.1289415559928577e-05 7 7 4 3
0.7813607511274382 7 7 4 4
-1.0778898101663589e-05 7 7 5 1
-7.0573125464793086e-06 7 7 5 2
9.92238248932972e-06 7 7 5 3
-0.015273115481071499 7 7 5 4
0.7784352093504221 7 7 5 5
2.3142368728259e-05 7 7 6 1
3.4099553021203484e-06 7 7 6 2
-8.267397668406011e-07 7 7 6 3
0.0021750830904674334 7 7 6 4
-0.004607240463323559 7 7 6 5
0.7476901749240769 7 7 6 6
-1.8259032876926092e-05 7 7 7 1
-1.9435408895978843e-05 7 7 7 2
1.422461264753315e-05 7 7 7 3
0.0002465671140534087 7 7 7 4
-0.0034291531638172244 7 7 7 5
0.0061515138335163505 7 7 7 6
0.8090486029544939 7 7 7 7
0.0016694000758677916 8 1 1 1
0.00014632853879342796 8 1 2 1
0.0014379039884363334 8 1 2 2
-0.00011902870785921844 8 1 3 1
-1.5878508740761033e-06 8 1 3 2
0.0014308655102277888 8 1 3 3
-1.5541386550060318e-05 8 1 4 1
-9.882561473328473e-06 8 1 4 2
4.4324318518918815e-07 8 1 4 3
-5.006968088045814e-06 8 1 4 4
-5.537384585203615e-06 8 1 5 1
-3.372440258864297e-06 8 1 5 2
1.2893636978326256e-06 8 1 5 3
-1.012901802626201e-06 8 1 5 4
-1.3410067396594845e-06 8 1 5 5
3.88691256110461e-06 8 1 6 1
2.7703789359865487e-06 8 1 6 2
8.304761408792942e-07 8 1 6 3
-6.866902898996718e-09 8 1 6 4
8.083942584831663e-07 8 1 6 5
-3.0679113014131976e-06 8 1 6 6
2.9412405342122776e-07 8 1 7 1
-2.4692448256651986e-06 8 1 7 2
-7.673143360837826e-07 8 1 7 3
-1.2224109342331145e-07 8 1 7 4
5.346626603316445e-07 8 1 7 5
-7.397367421896477e-07 8 1 7 6
-2.5643979257285313e-06 8 1 7 7
1.6754030354301947e-05 8 1 8 1
0.0018359083029590058 8 2 1 1
0.00010682745972015959 8 2 2 1
0.0021060139196241784 8 2 2 2
3.945633635376088e-07 8 2 3 1
-0.00013342370275696108 8 2 3 2
0.001840109266913953 8 2 3 3
-2.459948125949205e-06 8 2 4 1
-2.67910221346009e-06 8 2 4 2
3.206999083024549e-06 8 2 4 3
-2.5194109246387384e-05 8 2 4 4
1.409208721179619e-07 8 2 5 1
-2.00532893474787e-06 8 2 5 2
1.9904566050625532e-06 8 2 5 3
2.2745255630265546e-07 8 2 5 4
-2.588791169976051e-05 8 2 5 5
7.839116128699375e-07 8 2 6 1
5.005797024493536e-07 8 2 6 2
3.031752049363862e-06 8 2 6 3
-6.797435526178238e-07 8 2 6 4
5.392086118822872e-07 8 2 6 5
-2.5800877097770966e-05 8 2 6 6
3.641800368690546e-07 8 2 7 1
-3.976868797683198e-08 8 2 7 2
1.342006718040158e-06 8 2 7 3
-6.886747346098704e-08 8 2 7 4
4.427609893613733e-07 8 2 7 5
6.670437276246237e-07 8 2 7 6
-2.521934901167233e-05 8 2 7 7
7.334478254625878e-07 8 2 8 1
5.106355595989267e-06 8 2 8 2
-0.001666552709047753 8 3 1 1
-1.2636026124908372e-06 8 3 2 1
-0.001671551430496735 8 3 2 2
0.00010091066477338068 8 3 3 1
0.00014630999310976233 8 3 3 2
-0.0019509252956328017 8 3 3 3
1.226627391263447e-07 8 3 4 1
4.967129803117059e-06 8 3 4 2
-1.8099352758150575e-05 8 3 4 3
-1.2245791630302396e-05 8 3 4 4
3.572547573373166e-07 8 3 5 1
2.9054749163310938e-06 8 3 5 2
-4.615934158692408e-06 8 3 5 3
1.7289230189955247e-07 8 3 5 4
-1.2535916978345872e-05 8 3 5 5
-3.6574043385257315e-07 8 3 6 1
1.2233818645117208e-06 8 3 6 2
-1.2584091097846358e-06 8 3 6 3
4.0789329059440913e-07 8 3 6 4
-3.961740058187799e-07 8 3 6 5
-1.3242357164087125e-05 8 3 6 6
5.352400590696132e-07 8 3 7 1
-7.635452075877803e-07 8 3 7 2
-2.173887280056996e-06 8 3 7 3
8.016033726939216e-08 8 3 7 4
2.3268507475708744e-08 8 3 7 5
4.5057254955810474e-07 8 3 7 6
-1.1735274209146404e-05 8 3 7 7
-2.8212460394421203e-06 8 3 8 1
-3.2825638086934817e-06 8 3 8 2
1.1973628267702271e-05 8 3 8 3
-0.0001513023726930442 8 4 1 1
-1.7688364654086849e-06 8 4 2 1
-0.00013055492146218093 8 4 2 2
-1.527339761041341e-06 8 4 3 1
2.205258392102922e-06 8 4 3 2
-0.00015665800322846158 8 4 3 3
4.6803766888227826e-07 8 4 4 1
-2.4156469400509954e-06 8 4 4 2
-4.2277303546288627e-07 8 4 4 3
0.001191168759727497 8 4 4 4
-3.596363283394237e-07 8 4 5 1
-1.9043677937836942e-07 8 4 5 2
1.6243030926386886e-07 8 4 5 3
0.0005232895996647524 8 4 5 4
-0.005470527390672513 8 4 5 5
7.144176161934766e-07 8 4 6 1
1.9442350095986145e-07 8 4 6 2
-4.159939035056261e-07 8 4 6 3
0.0018323745187079697 8 4 6 4
-0.011409405360181375 8 4 6 5
0.004198635789083744 8 4 6 6
-6.607024783356328e-07 8 4 7 1
-5.667557554123671e-07 8 4 7 2
1.1721115183430291e-07 8 4 7 3
0.005301080909593501 8 4 7 4
0.002784953366464494 8 4 7 5
-0.007865924168106421 8 4 7 6
0.005806036044344355 8 4 7 7
-3.082143787092418e-07 8 4 8 1
-2.2702035038863035e-06 8 4 8 2
-3.652906842416689e-07 8 4 8 3
0.03507794549032045 8 4 8 4
-0.0011205714225666571 8 5 1 1
-4.303658267226414e-06 8 5 2 1
-0.0011087116131895444 8 5 2 2
-1.7862401982031971e-06 8 5 3 1
6.424400783887249e-07 8 5 3 2
-0.00110875938907648 8 5 3 3
-1.1847918422657537e-08 8 5 4 1
-8.651814153477444e-07 8 5 4 2
9.864049218555716e-07 8 5 4 3
0.0024333861199590003 8 5 4 4
1.4663544044910828e-06 8 5 5 1
-1.257372829802825e-06 8 5 5 2
-8.610946745363926e-07 8 5 5 3
0.0036448886933051596 8 5 5 4
0.0031821427474843424 8 5 5 5
9.382580681133024e-07 8 5 6 1
1.5618192076423414e-07 8 5 6 2
-4.675750774441382e-07 8 5 6 3
0.007133082528795346 8 5 6 4
-0.001401454351639924 8 5 6 5
0.01054857531569536 8 5 6 6
7.505791272498479e-07 8 5 7 1
1.1070337121651003e-06 8 5 7 2
-2.744562657319034e-07 8 5 7 3
-0.0036701603680810834 8 5 7 4
-0.007679942077435933 8 5 7 5
-0.003710472498644537 8 5 7 6
-0.003862101354327035 8 5 7 7
-1.1637534646495815e-06 8 5 8 1
-1.1908895655885588e-06 8 5 8 2
-3.786334199704078e-08 8 5 8 3
0.0004772932731457744 8 5 8 4
0.02800128666363485 8 5 8 5
0.0017141747221332642 8 6 1 1
4.593389476870391e-06 8 6 2 1
0.001703937578869015 8 6 2 2
-2.412154321255887e-06 8 6 3 1
2.3303475642290853e-06 8 6 3 2
0.0017015260559094523 8 6 3 3
3.42511448653129e-07 8 6 4 1
2.9622239036927707e-07 8 6 4 2
-1.5368402119585865e-07 8 6 4 3
-0.00083644098453463 8 6 4 4
-3.9481641596131585e-07 8 6 5 1
-1.3593903330668847e-07 8 6 5 2
3.26740795111144e-07 8 6 5 3
0.0037542039911190564 8 6 5 4
0.005978593711030346 8 6 5 5
8.454250057724732e-07 8 6 6 1
-1.2330915687552447e-06 8 6 6 2
-5.127820447589943e-07 8 6 6 3
-0.001187242004586048 8 6 6 4
-0.003724507689913137 8 6 6 5
0.00252651460406428 8 6 6 6
-4.0726228441776203e-07 8 6 7 1
-9.061903265517828e-07 8 6 7 2
1.698670464111236e-07 8 6 7 3
0.0030076056483413867 8 6 7 4
0.006672355571463889 8 6 7 5
0.0023439064277430612 8 6 7 6
0.0027645683575332324 8 6 7 7
1.14353490511026e-06 8 6 8 1
1.9854578279156133e-07 8 6 8 2
-3.1476239168024505e-07 8 6 8 3
0.0036965643394754125 8 6 8 4
-0.004314700954504008 8 6 8 5
0.023721014829183252 8 6 8 6
-0.0006442553385533538 8 7 1 1
-4.312633825522691e-06 8 7 2 1
-0.0006472312293046462 8 7 2 2
6.405482462851214e-07 8 7 3 1
3.1627468254136813e-06 8 7 3 2
-0.0006474689888545021 8 7 3 3
6.79942336057236e-08 8 7 4 1
3.7938122992791984e-07 8 7 4 2
-2.7673167622306894e-07 8 7 4 3
-0.00876762561647016 8 7 4 4
-8.191224566042289e-07 8 7 5 1
-1.786129840581962e-07 8 7 5 2
3.6569476612926614e-07 8 7 5 3
0.001269682190459078 8 7 5 4
0.016734011394898485 8 7 5 5
-3.021860708701721e-07 8 7 6 1
-9.447895929581681e-07 8 7 6 2
-1.9208855881147358e-07 8 7 6 3
0.004336602780511109 8 7 6 4
-0.002944429645864165 8 7 6 5
-0.0039025853106556345 8 7 6 6
7.802420306083856e-07 8 7 7 1
-1.7744463348129912e-06 8 7 7 2
-7.298824789009293e-07 8 7 7 3
-0.0020829695952034924 8 7 7 4
0.003701508557106098 8 7 7 5
0.00021117479122662172 8 7 7 6
0.00151633576383019 8 7 7 7
5.453976300231384e-07 8 7 8 1
-5.779477409475224e-07 8 7 8 2
4.417512722215957e-07 8 7 8 3
-0.0012809440049594018 8 7 8 4
-0.002351180087320964 8 7 8 5
0.006094855433455223 8 7 8 6
0.031628630698444425 8 7 8 7
0.1818991962102904 8 8 1 1
0.00010065244532503924 8 8 2 1
0.18177675965087425 8 8 2 2
-6.177059868132671e-05 8 8 3 1
-3.9566138306978385e-05 8 8 3 2
0.1817412030066415 8 8 3 3
2.2240420093927995e-05 8 8 4 1
-3.056189422727572e-06 8 8 4 2
-1.0255398056624659e-05 8 8 4 3
0.7806216695137613 8 8 4 4
-9.82496690559607e-06 8 8 5 1
-7.988816645612601e-06 8 8 5 2
9.863146999556986e-06 8 8 5 3
-0.0051996532492886854 8 8 5 4
0.8004728404388607 8 8 5 5
2.6591396791951418e-05 8 8 6 1
4.749702049854354e-06 8 8 6 2
-1.5728070787465258e-06 8 8 6 3
-0.0038883949899413406 8 8 6 4
0.00892578284974746 8 8 6 5
0.7920640242689606 8 8 6 6
-1.651045775874943e-05 8 8 7 1
-1.6772467808180653e-05 8 8 7 2
1.3910733378265716e-05 8 8 7 3
0.0033659891852611534 8 8 7 4
0.00038002949177349046 8 8 7 5
-0.005452701754567996 8 8 7 6
0.7683260404070877 8 8 7 7
-5.3092602510851946e-08 8 8 8 1
-2.80787506561652e-05 8 8 8 2
-1.456588860129245e-05 8 8 8 3
0.0018187458974543921 8 8 8 4
0.0035954611454196584 8 8 8 5
0.0027400047865356186 8 8 8 6
0.0012497600328532296 8 8 8 7
0.8554589815602069 8 8 8 8
-0.005435700401400628 9 1 1 1
-3.620307940278344e-05 9 1 2 1
-0.004973220949704696 9 1 2 2
-0.00012513716750502674 9 1 3 1
-0.0005720069568585633 9 1 3 2
-0.004716214366230737 9 1 3 3
0.0006109039278964991 9 1 4 1
0.000499292686098711 9 1 4 2
-8.705111642747105e-05 9 1 4 3
0.0010877776276814947 9 1 4 4
0.0002807820086266791 9 1 5 1
-1.131509590965685e-05 9 1 5 2
1.2992085488096018e-06 9 1 5 3
1.8468742010589257e-05 9 1 5 4
0.0009975569950605384 9 1 5 5
-0.00015632830213699127 9 1 6 1
0.00010382154190973491 9 1 6 2
0.00014022707122982075 9 1 6 3
-1.7236976440226237e-05 9 1 6 4
-1.732965521190769e-05 9 1 6 5
0.0010228647667506953 9 1 6 6
0.00010601579305088793 9 1 7 1
-1.7775457179937115e-05 9 1 7 2
-8.755931119887837e-05 9 1 7 3
2.5123541830436146e-05 9 1 7 4
1.3019279721696718e-05 9 1 7 5
1.62088459002188e-05 9 1 7 6
0.0009972571189532024 9 1 7 7
-0.0001877368893297542 9 1 8 1
2.253666887664937e-05 9 1 8 2
-3.254762315764726e-06 9 1 8 3
1.8995094236074026e-05 9 1 8 4
-1.3697735633726946e-05 9 1 8 5
1.9459675999832593e-05 9 1 8 6
-1.7454831992874354e-05 9 1 8 7
0.0010171884021536444 9 1 8 8
0.030389890340893008 9 1 9 1
-0.0028623634199741645 9 2 1 1
-0.0005607951364706238 9 2 2 1
-0.0035804155097091186 9 2 2 2
-0.0005905394482402351 9 2 3 1
0.0003940383837345951 9 2 3 2
-0.003039547226430005 9 2 3 3
0.00016445784406761296 9 2 4 1
0.00025682239164660027 9 2 4 2
-0.0002340338506918464 9 2 4 3
0.0006623948402847303 9 2 4 4
5.746268161381692e-05 9 2 5 1
0.0002682337500778602 9 2 5 2
-6.904746361427804e-05 9 2 5 3
1.5872414673326984e-05 9 2 5 4
0.0006707185391007969 9 2 5 5
-2.948823680280767e-05 9 2 6 1
-0.00023124235260861333 9 2 6 2
-1.0774257516746997e-05 9 2 6 3
-2.8338708314074262e-05 9 2 6 4
7.255429412540937e-06 9 2 6 5
0.0006636288625608258 9 2 6 6
-1.0188980584419966e-05 9 2 7 1
0.00014401990470421546 9 2 7 2
0.0001470510267953391 9 2 7 3
2.127275541197979e-05 9 2 7 4
2.253731946598004e-05 9 2 7 5
9.601729461189117e-06 9 2 7 6
0.0006517176568313291 9 2 7 7
-0.0004307752426812693 9 2 8 1
-8.375892682267661e-05 9 2 8 2
0.00019006476431664658 9 2 8 3
-1.593861520346009e-05 9 2 8 4
-1.966317761086341e-05 9 2 8 5
2.1928466761388445e-05 9 2 8 6
4.9447366443868355e-06 9 2 8 7
0.0007216023007984882 9 2 8 8
-0.005752008230563457 9 2 9 1
0.035717226983855904 9 2 9 2
0.0006860779643413433 9 3 1 1
-0.00026243488834357744 9 3 2 1
0.0009381782945850021 9 3 2 2
-0.0002932858997698986 9 3 3 1
-0.00016429938679870078 9 3 3 2
0.0005789175722734387 9 3 3 3
-0.00014586221006335405 9 3 4 1
-0.00011168746528336806 9 3 4 2
-0.00010965672448672931 9 3 4 3
-0.00021275341881498827 9 3 4 4
-4.179331962259793e-05 9 3 5 1
-6.833014691239336e-06 9 3 5 2
9.258183747826555e-06 9 3 5 3
-6.448473065685452e-06 9 3 5 4
-0.00019430593497515608 9 3 5 5
5.63349511583187e-05 9 3 6 1
1.2958499804861249e-05 9 3 6 2
-3.554816651230845e-05 9 3 6 3
6.444797506756802e-06 9 3 6 4
1.2499858239962419e-06 9 3 6 5
-0.00020950734820208994 9 3 6 6
-7.665408940738028e-06 9 3 7 1
3.988162951038947e-06 9 3 7 2
8.688750994921593e-06 9 3 7 3
-2.350313957345747e-06 9 3 7 4
-8.461543468600051e-07 9 3 7 5
-1.5208377780368099e-06 9 3 7 6
-0.00018915419752911353 9 3 7 7
6.764579618355212e-05 9 3 8 1
9.013266826937671e-06 9 3 8 2
6.784982002727051e-05 9 3 8 3
-3.632040222099897e-06 9 3 8 4
-2.593509529381717e-06 9 3 8 5
-3.974083633112339e-06 9 3 8 6
4.547490472753194e-06 9 3 8 7
-0.00020441030168490772 9 3 8 8
-0.003714185566355512 9 3 9 1
-0.00034134838858814555 9 3 9 2
0.006426344800674908 9 3 9 3
0.0036928230711389376 9 4 1 1
0.0003229405606839622 9 4 2 1
0.0033457888581654117 9 4 2 2
-0.00011841732623330837 9 4 3 1
-0.0001778827107747183 9 4 3 2
0.0029697183894687356 9 4 3 3
4.545601600783398e-07 9 4 4 1
4.816406000352464e-07 9 4 4 2
-6.095401543860942e-07 9 4 4 3
-0.003178263857970409 9 4 4 4
8.70888659240716e-07 9 4 5 1
2.1814861195140993e-07 9 4 5 2
5.625704246732653e-07 9 4 5 3
4.1652100790235926e-05 9 4 5 4
-0.0028415857766985013 9 4 5 5
3.2529350156205667e-07 9 4 6 1
2.0939964706153033e-07 9 4 6 2
2.040100046708447e-06 9 4 6 3
-7.2153184017530745e-06 9 4 6 4
0.000157177501072849 9 4 6 5
-0.0029953400307160373 9 4 6 6
4.1151944520456726e-07 9 4 7 1
-7.729517894585847e-08 9 4 7 2
1.2956150841645868e-06 9 4 7 3
-9.534020536501803e-05 9 4 7 4
-5.681628676052413e-05 9 4 7 5
2.5820915904289227e-06 9 4 7 6
-0.002995358103029337 9 4 7 7
-3.3008317367925247e-07 9 4 8 1
3.482763218230913e-07 9 4 8 2
-6.128239078245888e-07 9 4 8 3
-0.00016769336181013134 9 4 8 4
3.405085109005907e-05 9 4 8 5
-6.74394709014051e-05 9 4 8 6
7.820636636440324e-05 9 4 8 7
-0.0029563904160958684 9 4 8 8
0.00010792437688725749 9 4 9 1
4.269583096492616e-05 9 4 9 2
-1.6537580172807374e-05 9 4 9 3
0.00016344128427808605 9 4 9 4
0.004836564759501177 9 5 1 1
2.4667045602425474e-05 9 5 2 1
0.004822074082482767 9 5 2 2
-1.544984847221655e-05 9 5 3 1
-3.924502184009343e-05 9 5 3 2
0.004558794597066358 9 5 3 3
-1.7944575824039568e-06 9 5 4 1
-1.4397554266046412e-06 9 5 4 2
7.51317528153324e-07 9 5 4 3
0.0022714585899426144 9 5 4 4
-4.238817419292974e-07 9 5 5 1
-2.211138262359069e-07 9 5 5 2
5.475317109812798e-07 9 5 5 3
9.156707451624937e-05 9 5 5 4
0.002852094478439953 9 5 5 5
6.232085101908445e-07 9 5 6 1
-1.231521573099542e-07 9 5 6 2
9.815969594681417e-07 9 5 6 3
0.0002499723087016214 9 5 6 4
-0.00017200692970233437 9 5 6 5
0.0024306106740855063 9 5 6 6
1.2250496958737472e-08 9 5 7 1
-3.256461242699836e-08 9 5 7 2
1.066823853106708e-06 9 5 7 3
-0.00010780342381644392 9 5 7 4
-7.303689624243358e-05 9 5 7 5
3.623260883774967e-05 9 5 7 6
0.0022389105251733816 9 5 7 7
7.546445259089125e-07 9 5 8 1
3.29939432974223e-07 9 5 8 2
-9.731941162526616e-07 9 5 8 3
1.239682962828913e-05 9 5 8 4
0.0002047287963660923 9 5 8 5
4.888036343108138e-05 9 5 8 6
0.00021895128548419526 9 5 8 7
0.0023289814619692137 9 5 8 8
-1.2091325001244426e-05 9 5 9 1
1.1435593633387487e-05 9 5 9 2
-1.0458245796394723e-05 9 5 9 3
3.1787464925515823e-05 9 5 9 4
4.711246760694259e-05 9 5 9 5
-0.002247410875163277 9 6 1 1
5.9144008498117806e-05 9 6 2 1
-0.0023442232640401195 9 6 2 2
0.00010436692897686352 9 6 3 1
-2.0560857124270405e-06 9 6 3 2
-0.00214295422071789 9 6 3 3
3.082455043992762e-06 9 6 4 1
2.424122460698408e-06 9 6 4 2
7.581714458702279e-07 9 6 4 3
-0.000749985203158632 9 6 4 4
7.176756125989825e-07 9 6 5 1
5.445477359998165e-07 9 6 5 2
-4.2534006460522065e-07 9 6 5 3
0.00018061648521636335 9 6 5 4
-0.0009323918409491914 9 6 5 5
-1.0993536469711347e-06 9 6 6 1
-4.83971389270834e-07 9 6 6 2
-5.705660231939132e-07 9 6 6 3
-0.0001937733176290025 9 6 6 4
0.0002188834854200778 9 6 6 5
-0.0006807792075599663 9 6 6 6
-2.8079234760937605e-07 9 6 7 1
3.80829361218821e-07 9 6 7 2
-4.1754378966012777e-07 9 6 7 3
6.987451029753328e-05 9 6 7 4
8.714414425616575e-05 9 6 7 5
0.00015245892492680912 9 6 7 6
-0.0010022900568746975 9 6 7 7
-2.0150185725593664e-06 9 6 8 1
-3.0315495660257595e-07 9 6 8 2
1.1878424462288743e-07 9 6 8 3
-0.00012544738193363966 9 6 8 4
-2.1695752759359188e-05 9 6 8 5
5.535621127666897e-05 9 6 8 6
-0.00011064012426125973 9 6 8 7
-0.0006701897835981997 9 6 8 8
1.9525164311965747e-05 9 6 9 1
5.021806145109297e-05 9 6 9 2
-3.7163509767437175e-05 9 6 9 3
-4.5606786299222154e-05 9 6 9 4
-2.6420119540661476e-05 9 6 9 5
5.358281062369884e-05 9 6 9 6
0.0006164825350141391 9 7 1 1
-5.118078607406917e-05 9 7 2 1
0.0006912721983289532 9 7 2 2
-4.4862748406186604e-05 9 7 3 1
9.259507655212326e-05 9 7 3 2
0.000533141584660429 9 7 3 3
-2.529394480137167e-06 9 7 4 1
-2.577981215010581e-06 9 7 4 2
1.7513806743776107e-06 9 7 4 3
-0.0001394255021580895 9 7 4 4
-1.0042287251695162e-06 9 7 5 1
-5.189637995373649e-07 9 7 5 2
3.8266056721306897e-07 9 7 5 3
-9.733938305833867e-05 9 7 5 4
6.516549582256567e-05 9 7 5 5
7.118680915790805e-07 9 7 6 1
-2.9084216917312e-07 9 7 6 2
2.6996670907836216e-08 9 7 6 3
6.272351125286532e-05 9 7 6 4
3.0347508305414167e-05 9 7 6 5
0.00013013744763276539 9 7 6 6
-1.9269301809967138e-07 9 7 7 1
-1.791323543302016e-07 9 7 7 2
5.378979056140591e-07 9 7 7 3
-6.751360622908737e-05 9 7 7 4
-1.779459889653047e-05 9 7 7 5
-0.0003151866458689001 9 7 7 6
5.927542796375733e-05 9 7 7 7
1.5333172059856205e-06 9 7 8 1
1.3694483723915113e-07 9 7 8 2
-1.1967643198564566e-06 9 7 8 3
8.752806786613443e-05 9 7 8 4
0.0001356600934250382 9 7 8 5
-7.58124727994756e-05 9 7 8 6
3.732921882778551e-05 9 7 8 7
0.00023117103448692673 9 7 8 8
-7.663013041726353e-05 9 7 9 1
-2.7894745875887855e-05 9 7 9 2
-1.276844367799908e-05 9 7 9 3
4.166154858316608e-05 9 7 9 4
2.0277832359064603e-05 9 7 9 5
-1.847846173446712e-05 9 7 9 6
4.022675831379681e-05 9 7 9 7
-0.00027791479921592617 9 8 1 1
-0.00019941970521446974 9 8 2 1
-0.00017693278915815092 9 8 2 2
2.9982778872583296e-05 9 8 3 1
9.858212458936301e-05 9 8 3 2
-1.9699172829779495e-05 9 8 3 3
-8.215789276384109e-07 9 8 4 1
-1.0795421462536616e-06 9 8 4 2
9.374787293007682e-08 9 8 4 3
0.0022114844798019175 9 8 4 4
-4.693309275144042e-07 9 8 5 1
-6.994624664774058e-07 9 8 5 2
-1.1471556584402893e-08 9 8 5 3
1.8419299121228398e-05 9 8 5 4
0.002614270532417548 9 8 5 5
9.570120640170627e-08 9 8 6 1
5.395447108381438e-07 9 8 6 2
-5.73303911175668e-07 9 8 6 3
-6.0053968258007696e-05 9 8 6 4
6.583463632093731e-05 9 8 6 5
0.002490315492814125 9 8 6 6
5.98246899708728e-08 9 8 7 1
-4.0102508951621694e-07 9 8 7 2
-7.535643828546112e-07 9 8 7 3
4.7687843255023133e-05 9 8 7 4
0.00010769930735233556 9 8 7 5
-9.96341233344194e-05 9 8 7 6
0.0022965697925881557 9 8 7 7
1.214155764850189e-06 9 8 8 1
2.2084520960532215e-07 9 8 8 2
5.3460128611363756e-08 9 8 8 3
-2.327450992714117e-05 9 8 8 4
4.7416272721507806e-05 9 8 8 5
4.756521219868934e-05 9 8 8 6