 &FCI NORB=22,NELEC=35,MS2=0,
  ORBSYM=1,1,1,1,1,1,1,1,1,1,1,1,1,1,1,1,1,1,1,1,1,1,
  ISYM=1,
 &END
4.18291433185933 1 1 1 1
-1.794146175036101e-05 2 1 1 1
0.21984674173776783 2 1 2 1
3.7414274364889852 2 2 1 1
-1.768438367801693e-05 2 2 2 1
4.179328606432912 2 2 2 2
-0.0003732213890550734 3 1 1 1
8.369253157885814e-06 3 1 2 1
-0.00032217364943712564 3 1 2 2
0.2199877349557017 3 1 3 1
0.00011025413448361053 3 2 1 1
-2.4985814435570293e-05 3 2 2 1
0.00012761099622736073 3 2 2 2
-1.3744584953125128e-06 3 2 3 1
0.21986636620486721 3 2 3 2
3.743242529321548 3 3 1 1
-1.5486985623532437e-05 3 3 2 1
3.7416946106791165 3 3 2 2
-0.0003732850840078475 3 3 3 1
0.00012788420309258004 3 3 3 2
4.183529893424771 3 3 3 3
2.2697318685167068e-05 4 1 1 1
-2.5724869687740045e-08 4 1 2 1
1.9529869300918974e-05 4 1 2 2
2.510177377866534e-08 4 1 3 1
1.190456810658748e-08 4 1 3 2
2.0095142615872782e-05 4 1 3 3
1.0167479407981149e-09 4 1 4 1
-3.7318869426650864e-07 4 2 1 1
1.2047749997907643e-06 4 2 2 1
-4.328124908802939e-07 4 2 2 2
1.1002109920830127e-08 4 2 3 1
3.912002156201789e-08 4 2 3 2
-3.7655013019988634e-07 4 2 3 3
3.9188965069992635e-07 4 3 1 1
1.1024636958124138e-08 4 3 2 1
4.029606814483958e-07 4 3 2 2
1.7548365393861117e-06 4 3 3 1
-2.8858091967707887e-08 4 3 3 2
4.492333649314733e-07 4 3 3 3
0.18144690742996675 4 4 1 1
1.6264990147091927e-08 4 4 2 1
0.18168870724195385 4 4 2 2
-2.0968138412461348e-08 4 4 3 1
-2.7811817191433108e-08 4 4 3 2
0.181446008250556 4 4 3 3
2.2617647550769053e-05 4 4 4 1
-4.738889394522754e-07 4 4 4 2
6.173527435349102e-07 4 4 4 3
4.1820174728629835 4 4 4 4
-7.982114385030441e-07 5 1 1 1
-2.842583248137216e-06 5 1 2 1
-6.758301678457951e-07 5 1 2 2
-2.0837993849906628e-07 5 1 3 1
1.382813653106808e-08 5 1 3 2
-6.921566148116064e-07 5 1 3 3
-6.492295623847413e-07 5 1 4 4
-3.6938734920097595e-05 5 2 1 1
-3.858958092734466e-08 5 2 2 1
-4.1690372359231545e-05 5 2 2 2
1.9209750632847257e-08 5 2 3 1
-2.013073147176444e-07 5 2 3 2
-3.710260602413328e-05 5 2 3 3
-1.4905714882968268e-09 5 2 4 1
-3.6514122121360634e-05 5 2 4 4
4.21641534876815e-09 5 2 5 2
-2.7923726619368866e-06 5 3 1 1
1.3941101668766626e-08 5 3 2 1
-2.7815416889212034e-06 5 3 2 2
-5.415394357875337e-08 5 3 3 1
-3.0035027521139017e-06 5 3 3 2
-3.2130078430288793e-06 5 3 3 3
-2.809107170921897e-06 5 3 4 4
-4.3625936763437373e-07 5 4 2 1
-4.405569059098649e-08 5 4 4 1
-2.8529228735994144e-06 5 4 4 2
-2.192390189195982e-07 5 4 4 3
6.756403239287577e-06 5 4 4 4
1.207866053908557e-06 5 4 5 1
-2.9765840709157853e-08 5 4 5 2
4.587217488557239e-08 5 4 5 3
0.21983813190385254 5 4 5 4
0.18168858495651366 5 5 1 1
1.63705966899766e-08 5 5 2 1
0.18193244536103867 5 5 2 2
-2.1318290697270877e-08 5 5 3 1
-2.785650701839943e-08 5 5 3 2
0.1816879009273997 5 5 3 3
1.9465069578630025e-05 5 5 4 1
-4.084553478387806e-07 5 5 4 2
5.436483819724906e-07 5 5 4 3
3.741315243740586 5 5 4 4
-7.572617140548757e-07 5 5 5 1
-4.119056833678278e-05 5 5 5 2
-3.2315341627248336e-06 5 5 5 3
6.7701120565231465e-06 5 5 5 4
4.179962782832004 5 5 5 5
2.5133673374933225e-06 6 1 1 1
-6.255812382596272e-08 6 1 2 1
2.205804527559054e-06 6 1 2 2
2.0034993730273927e-06 6 1 3 1
3.4259138006039008e-09 6 1 3 2
2.1792994674474493e-06 6 1 3 3
2.2009083615997935e-06 6 1 4 4
7.302040252790229e-09 6 1 5 4
2.171730002218109e-06 6 1 5 5
-4.578585218852093e-07 6 2 1 1
1.7432033801261065e-07 6 2 2 1
-4.733624472582713e-07 6 2 2 2
3.4160371965184374e-09 6 2 3 1
1.8650001030522386e-06 6 2 3 2
-3.9698799292026533e-07 6 2 3 3
-2.438835950991435e-07 6 2 4 4
1.1775366431997759e-08 6 2 5 4
-2.426847916574376e-07 6 2 5 5
2.6719091449294226e-05 6 3 1 1
3.1625425109800274e-09 6 3 2 1
2.656243567506179e-05 6 3 2 2
1.4217143601234715e-07 6 3 3 1
3.063422578779884e-05 6 3 3 3
2.7105516781102668e-05 6 3 4 4
-1.582912629153572e-09 6 3 5 2
1.9760404832032038e-09 6 3 5 4
2.6914593283977966e-05 6 3 5 5
1.3590247793439717e-09 6 3 6 3
-5.469083061263212e-08 6 4 1 1
-5.525191995325494e-08 6 4 2 2
1.0857508334650674e-07 6 4 3 1
-5.468216858432924e-08 6 4 3 3
1.7836193822599e-07 6 4 4 1
-2.0182580348885222e-08 6 4 4 2
2.090379888098754e-06 6 4 4 3
-0.0006192902653608552 6 4 4 4
7.503808228497913e-09 6 4 5 1
2.05576406528416e-08 6 4 5 2
2.5980616301699517e-09 6 4 5 3
2.4872267409794484e-06 6 4 5 4
-0.0005342437538492832 6 4 5 5
1.733364559636972e-06 6 4 6 1
-2.5814798187096428e-08 6 4 6 2
1.4909033900799004e-08 6 4 6 3
0.2200371312072203 6 4 6 4
-1.527011391509185e-08 6 5 1 1
-1.5264641350670928e-08 6 5 2 2
-4.332953454665229e-07 6 5 3 2
-1.5289061020817233e-08 6 5 3 3
7.605624366589088e-09 6 5 4 1
1.1964538645361978e-08 6 5 4 2
1.9778780591903277e-09 6 5 4 3
3.113236176065696e-05 6 5 4 4
1.5468750045331557e-07 6 5 5 1
-1.9680849776182477e-08 6 5 5 2
1.909748750387398e-06 6 5 5 3
-4.202152100203997e-05 6 5 5 4
3.6012316119009814e-05 6 5 5 5
-4.615703249172416e-08 6 5 6 1
-2.887740306042077e-06 6 5 6 2
-1.720570809478027e-07 6 5 6 3
5.076078762404895e-07 6 5 6 4
0.21996820157537877 6 5 6 5
0.1814463210918091 6 6 1 1
1.6314488637487405e-08 6 6 2 1
0.18168833761258862 6 6 2 2
-2.0963687583666665e-08 6 6 3 1
-2.7805671355710535e-08 6 6 3 2
0.18144585649731215 6 6 3 3
2.0013178447665783e-05 6 6 4 1
-4.05136009142965e-07 6 6 4 2
5.195411144068195e-07 6 6 4 3
3.7438690340163205 6 6 4 4
-6.518153313855318e-07 6 6 5 1
-3.657491348242636e-05 6 6 5 2
-2.764289663157804e-06 6 6 5 3
5.8885836694636826e-06 6 6 5 4
3.7429812774793 6 6 5 5
2.494917607552871e-06 6 6 6 1
-2.8230721185120293e-07 6 6 6 2
3.088994424888962e-05 6 6 6 3
-0.0006190358342104532 6 6 6 4
3.608162021414772e-05 6 6 6 5
4.185877726669528 6 6 6 6
0.0008410000186015545 7 1 1 1
-0.00046422798853250455 7 1 2 1
0.0007231763385359187 7 1 2 2
3.3007076385173436e-07 7 1 3 1
-2.250140464511029e-06 7 1 3 2
0.0007250297451271485 7 1 3 3
4.483770696792958e-07 7 1 4 1
-1.358242055095374e-06 7 1 4 2
-6.096092101730093e-08 7 1 4 3
0.00024564983004010844 7 1 4 4
-1.5568368065102956e-07 7 1 5 1
-6.134351562071441e-07 7 1 5 2
5.491731834684383e-07 7 1 5 3
1.303585571515022e-06 7 1 5 4
0.0002466245648118865 7 1 5 5
3.105390263608308e-08 7 1 6 1
1.758291694218391e-07 7 1 6 2
1.237110550565381e-07 7 1 6 3
-2.110089850640763e-09 7 1 6 4
-5.506687627994463e-07 7 1 6 5
0.0002456532433275344 7 1 6 6
0.01687804041488223 7 1 7 1
-0.0059053580735413435 7 2 1 1
5.5891296157970385e-05 7 2 2 1
-0.006810182157718428 7 2 2 2
-4.322048285615863e-07 7 2 3 1
-4.925438258655857e-07 7 2 3 2
-0.005911877248005287 7 2 3 3
-1.4181072214588999e-06 7 2 4 1
3.622741359970102e-07 7 2 4 2
1.5538603106775456e-07 7 2 4 3
-0.001021773634584204 7 2 4 4
-6.88141629849273e-09 7 2 5 1
3.475239788036225e-06 7 2 5 2
4.852277238971847e-08 7 2 5 3
-3.4300836639406016e-07 7 2 5 4
-0.0010258702641985486 7 2 5 5
-3.9026029551728483e-08 7 2 6 1
8.455942805636959e-08 7 2 6 2
-4.866290375433333e-07 7 2 6 3
9.643167791185012e-09 7 2 6 4
-3.5007326375013734e-08 7 2 6 5
-0.0010216339399540808 7 2 6 6
-0.0047789038874397225 7 2 7 1
0.015764920714947908 7 2 7 2
-2.7276701188246984e-06 7 3 1 1
5.666842519379005e-07 7 3 2 1
-3.2504979860259067e-06 7 3 2 2
5.6370239507835064e-05 7 3 3 1
-0.00047548431535553653 7 3 3 2
-2.7504382230240322e-06 7 3 3 3
1.6858548641346477e-07 7 3 4 1
3.30688453940433e-07 7 3 4 2
1.0271773925047311e-07 7 3 4 3
2.8753999235525212e-05 7 3 4 4
4.890341914618154e-07 7 3 5 1
-2.0814684672705384e-08 7 3 5 2
3.6462585570476147e-06 7 3 5 3
-5.52840670244724e-07 7 3 5 4
2.8861827109868812e-05 7 3 5 5
5.8416341192219944e-08 7 3 6 1
1.160439202052615e-06 7 3 6 2
-1.665103610804849e-07 7 3 6 3
-2.5985011011497447e-06 7 3 6 5
2.8762206361745095e-05 7 3 6 6
0.004214537821446476 7 3 7 1
0.0012715187889707547 7 3 7 2
0.04586205187336128 7 3 7 3
2.9979803015846106e-06 7 4 1 1
-1.2674209966708527e-06 7 4 2 1
2.902954465792847e-06 7 4 2 2
4.1283987750405507e-08 7 4 3 1
2.2852204183372278e-07 7 4 3 2
2.640293791791671e-06 7 4 3 3
-3.0705185018482327e-09 7 4 4 1
-8.083865771478834e-09 7 4 4 2
0.00012401000706291395 7 4 4 4
-1.2604498595335676e-08 7 4 5 1
6.059337725118046e-09 7 4 5 2
0.0004120068216108514 7 4 5 4
0.00010902133803232888 7 4 5 5
1.9560006443755776e-09 7 4 6 2
-1.544057212073806e-05 7 4 6 4
7.329820935058061e-07 7 4 6 5
0.00010644065570567897 7 4 6 6
-6.299448799851606e-07 7 4 7 1
2.7266593036189263e-07 7 4 7 2
1.434212583601555e-07 7 4 7 3
8.341915299546392e-06 7 4 7 4
-9.916032396090198e-06 7 5 1 1
-1.6724876110744192e-07 7 5 2 1
-6.964775917827586e-06 7 5 2 2
6.265170377799116e-07 7 5 3 1
2.3222358050582772e-08 7 5 3 2
-5.354240654471205e-06 7 5 3 3
3.956203628564192e-09 7 5 4 1
-1.788468022443719e-09 7 5 4 2
-4.091441683012159e-09 7 5 4 3
0.005316893743155973 7 5 4 4
-5.222177992635672e-09 7 5 5 1
1.602671059696584e-08 7 5 5 2
-5.930456754696887e-09 7 5 5 3
1.0350910673028582e-05 7 5 5 4
0.0061748410073453565 7 5 5 5
5.772227975881851e-09 7 5 6 1
5.491953301996162e-08 7 5 6 3
-3.5161132035200893e-07 7 5 6 4
-1.524089359744226e-05 7 5 6 5
0.005318337751230742 7 5 6 6
-3.292677097752258e-07 7 5 7 1
1.3288593257076607e-06 7 5 7 2
1.1891544154883822e-07 7 5 7 3
2.564534291568912e-06 7 5 7 4
4.8300888385035425e-05 7 5 7 5
-4.7016080307862734e-07 7 6 1 1
7.680148242257722e-08 7 6 2 1
-4.347224074248436e-07 7 6 2 2
1.063620767728759e-07 7 6 3 1
2.199878407076779e-07 7 6 3 2
-3.8562863505240605e-07 7 6 3 3
-5.746324679757637e-09 7 6 4 1
7.45912469592534e-09 7 6 4 2
-1.3974995374083983e-09 7 6 4 3
-0.00019858741242024944 7 6 4 4
4.532037694942889e-09 7 6 5 1
3.2289616735976932e-09 7 6 5 2
4.783268039551415e-08 7 6 5 3
8.108827567221018e-07 7 6 5 4
-0.00019842790511817593 7 6 5 5
2.2191413773789217e-09 7 6 6 1
7.032973766983659e-08 7 6 6 2
-5.790366907526457e-09 7 6 6 3
7.695379943170221e-06 7 6 6 4
0.0004097462497062803 7 6 6 5
-0.0002296746531285017 7 6 6 6
-2.4022454706523127e-07 7 6 7 1
-5.2225765456741316e-08 7 6 7 2
-1.7476227009884444e-06 7 6 7 3
8.497270571768794e-07 7 6 7 4
-6.81140645608429e-07 7 6 7 5
4.2642265050535694e-05 7 6 7 6
1.1519570871992373 7 7 1 1
-0.005222043123577666 7 7 2 1
1.1507204674650557 7 7 2 2
0.004606981762983738 7 7 3 1
0.0014037644585046494 7 7 3 2
1.1840505334316191 7 7 3 3
8.35881485656728e-07 7 7 4 1
1.088993447036943e-07 7 7 4 2
6.8702835264836405e-09 7 7 4 3
0.1821812400168251 7 7 4 4
-1.3420054623751857e-07 7 7 5 1
-1.4064286104750728e-06 7 7 5 2
6.129096645258124e-09 7 7 5 3
5.44105570321171e-06 7 7 5 4
0.18244920611357948 7 7 5 5
-1.5431539072538794e-08 7 7 6 1
-2.713766874037873e-08 7 7 6 2
2.8857880881970806e-07 7 7 6 3
9.792747040166415e-07 7 7 6 4
-9.177854673856277e-07 7 7 6 5
0.18221775152309036 7 7 6 6
-9.774031466788815e-05 7 7 7 1
-2.9132247466897172e-05 7 7 7 2
1.8395123389212814e-05 7 7 7 3
-3.6893237058914707e-07 7 7 7 4
-2.9246435441912126e-05 7 7 7 5
-3.0854717017084517e-07 7 7 7 6
0.8502359864595452 7 7 7 7
-0.0030728678266039615 8 1 1 1
-0.00013479696251901356 8 1 2 1
-0.0026474858325812333 8 1 2 2
0.00036536461161550577 8 1 3 1
-9.18474946735312e-06 8 1 3 2
-0.002654571753487552 8 1 3 3
-1.0937101280483492e-06 8 1 4 1
-6.445438709966313e-07 8 1 4 2
-1.2823477650807523e-07 8 1 4 3
-0.0007799425042313867 8 1 4 4
-5.100404125176115e-07 8 1 5 1
1.836356065783939e-06 8 1 5 2
1.7886734963477383e-06 8 1 5 3
7.814032355970228e-07 8 1 5 4
-0.0007830401417120052 8 1 5 5
-1.1491433258136311e-07 8 1 6 1
8.171382881754033e-07 8 1 6 2
-6.661905557663393e-07 8 1 6 3
1.3968931414915082e-09 8 1 6 4
-1.7050533547624673e-06 8 1 6 5
-0.000779940116121271 8 1 6 6
0.009303329859613619 8 1 7 1
0.006718828464429982 8 1 7 2
0.016712560213200608 8 1 7 3
-2.1942798120400728e-07 8 1 7 4
8.328784908558956e-07 8 1 7 5
-7.821257263748661e-07 8 1 7 6
-7.062754898955239e-05 8 1 7 7
0.03107920085860882 8 1 8 1
-0.001722072433515791 8 2 1 1
-0.00020554005294303186 8 2 2 1
-0.001998257676510442 8 2 2 2
-5.552118658035732e-06 8 2 3 1
0.0003713109381332948 8 2 3 2
-0.0017246839653576181 8 2 3 3
6.518719473144508e-07 8 2 4 1
-1.1057225509952846e-06 8 2 4 2
1.4708322981964626e-07 8 2 4 3
0.0007850588499833862 8 2 4 4
-1.1621861966579462e-07 8 2 5 1
-2.3953588015638994e-06 8 2 5 2
-6.744177553764246e-07 8 2 5 3
1.0913824016306525e-06 8 2 5 4
0.000788244358030666 8 2 5 5
1.9196055162534872e-07 8 2 6 1
-7.019028186123123e-07 8 2 6 2
5.090682817246623e-07 8 2 6 3
3.2768807594841818e-09 8 2 6 4
9.567883187242785e-07 8 2 6 5
0.0007850395136705931 8 2 6 6
0.006689405446057795 8 2 7 1
-0.009730392019154743 8 2 7 2
-0.012467426379117153 8 2 7 3
-4.93965794228482e-07 8 2 7 4
-1.013004061208968e-06 8 2 7 5
4.989743984274942e-07 8 2 7 6
-0.0002692742818134297 8 2 7 7
-0.01013307244651247 8 2 8 1
0.02183694481436528 8 2 8 2
0.004682176674542803 8 3 1 1
-1.5409327209093805e-06 8 3 2 1
0.004686987135693008 8 3 2 2
-0.00020926071708148546 8 3 3 1
-0.00013080966466233368 8 3 3 2
0.005413821410655774 8 3 3 3
-7.52134211045918e-07 8 3 4 1
1.4211124830588117e-06 8 3 4 2
4.771995694155121e-08 8 3 4 3
-0.0006896523670274188 8 3 4 4
9.977410640948366e-07 8 3 5 1
1.4178863032229139e-06 8 3 5 2
-3.64793280063025e-07 8 3 5 3
-1.710899831807434e-06 8 3 5 4
-0.0006923957610065874 8 3 5 5
-1.697425884692772e-07 8 3 6 1
9.929064956124088e-08 8 3 6 2
-4.807448209490286e-07 8 3 6 3
-2.5907145676905526e-09 8 3 6 4
1.9384707468562535e-07 8 3 6 5
-0.0006896536246502841 8 3 6 6
-0.00897955181343223 8 3 7 1
0.005818517399196043 8 3 7 2
0.0018357525253607457 8 3 7 3
6.321999947499017e-07 8 3 7 4
7.379044839267543e-07 8 3 7 5
-1.9245976045906596e-08 8 3 7 6
0.00023669702699468325 8 3 7 7
-0.0044263334289092295 8 3 8 1
-0.014127162481214919 8 3 8 2
0.02644121882079353 8 3 8 3
-3.998606099398504e-06 8 4 1 1
3.475259296136603e-08 8 4 2 1
-3.99113142014291e-06 8 4 2 2
-4.4413800909242705e-07 8 4 3 1
7.504727009121841e-07 8 4 3 2
-2.959972850475735e-06 8 4 3 3
1.3391667954002255e-08 8 4 4 1
-6.064138904240671e-09 8 4 4 2
6.6333164239928275e-09 8 4 4 3
-0.0004947518001078638 8 4 4 4
-5.607546879331092e-09 8 4 5 1
-1.9232751976436097e-08 8 4 5 2
-4.011785429420114e-09 8 4 5 3
-0.00015422333529635857 8 4 5 4
-0.0004345658368048967 8 4 5 5
3.00570141891834e-09 8 4 6 1
-5.813520356528404e-09 8 4 6 2
2.6049808531744186e-09 8 4 6 3
8.924207695695693e-05 8 4 6 4
6.805041371300576e-07 8 4 6 5
-0.00042675256728790504 8 4 6 6
1.7492728543616583e-08 8 4 7 1
-4.351296788251553e-07 8 4 7 2
1.5066727846786046e-07 8 4 7 3
-2.489552199290933e-06 8 4 7 4
-6.654624848718912e-06 8 4 7 5
-2.1754747302890214e-06 8 4 7 6
4.510968412454039e-06 8 4 7 7
-5.090800618167625e-07 8 4 8 1
3.1732354275627434e-07 8 4 8 2
-2.2822564920835443e-07 8 4 8 3
3.634499464452137e-06 8 4 8 4
1.996989441536008e-06 8 5 1 1
4.1716347013798717e-07 8 5 2 1
9.540824642303864e-07 8 5 2 2
1.7576755003765953e-06 8 5 3 1
7.0937000884008e-08 8 5 3 2
2.3053881681989365e-06 8 5 3 3
5.12467054253324e-09 8 5 4 2
-0.0020126907593962097 8 5 4 4
1.8309060324866343e-08 8 5 5 1
-1.723660788143257e-08 8 5 5 2
1.1185294018369903e-08 8 5 5 3
-3.959021619056626e-05 8 5 5 4
-0.0023450860766041936 8 5 5 5
-3.389673937741531e-09 8 5 6 1
-1.8237534472266818e-08 8 5 6 3
1.0920539316275474e-06 8 5 6 4
8.774183404839164e-05 8 5 6 5
-0.002014187349795471 8 5 6 6
3.533023406595126e-07 8 5 7 1
-7.369116953434969e-07 8 5 7 2
-2.5087702295643353e-07 8 5 7 3
-3.03106880047638e-06 8 5 7 4
-2.0507856946569578e-05 8 5 7 5
2.906203818597909e-06 8 5 7 6
1.3092189985656989e-05 8 5 7 7
-5.395625010505198e-07 8 5 8 1
1.0069985534638687e-06 8 5 8 2
-6.628960688034918e-07 8 5 8 3
2.4405707680651714e-06 8 5 8 4
1.0720908044582769e-05 8 5 8 5
-8.282228851032529e-07 8 6 1 1
3.512687349449545e-07 8 6 2 1
-1.170915616010878e-06 8 6 2 2
-2.2744226122148075e-07 8 6 3 1
2.182834517821122e-07 8 6 3 2
-1.1203965289768194e-06 8 6 3 3
1.884457813002241e-08 8 6 4 1
-6.089269666359455e-09 8 6 4 2
2.4757920044249713e-09 8 6 4 3
0.0011430914641799362 8 6 4 4
-6.080553076729007e-09 8 6 5 1
-3.3121316533080414e-08 8 6 5 2
-1.6582434509052066e-08 8 6 5 3
6.398411291356427e-07 8 6 5 4
0.0011413070500815436 8 6 5 5
3.3896589573602235e-09 8 6 6 1
-2.1357307086723706e-08 8 6 6 2
2.8464925484648227e-08 8 6 6 3
-3.160496809341185e-05 8 6 6 4
-0.00015426158930789696 8 6 6 5
0.001321632685912492 8 6 6 6
1.4117649283255763e-07 8 6 7 1
-1.7994768330078845e-07 8 6 7 2
5.3613354706075626e-08 8 6 7 3
-3.5682078300240867e-07 8 6 7 4
1.811728952104101e-06 8 6 7 5
-1.3073030476626646e-05 8 6 7 6
2.871551360624015e-06 8 6 7 7
6.125306840187644e-09 8 6 8 1
3.5524615058242824e-07 8 6 8 2
-6.537686614237888e-07 8 6 8 3
1.291518873845384e-06 8 6 8 4
-1.6635234298027266e-06 8 6 8 5
5.568182325240588e-06 8 6 8 6
0.02016629700105649 8 7 1 1
0.007335906025754242 8 7 2 1
-0.0006534786100736117 8 7 2 2
0.00430100924517667 8 7 3 1
-0.0036471481547370155 8 7 3 2
0.01199784373695075 8 7 3 3
-8.83769196939029e-08 8 7 4 1
-1.822120132391439e-07 8 7 4 2
2.5217127669848176e-09 8 7 4 3
-0.0020733772068862455 8 7 4 4
1.7978500317758446e-07 8 7 5 1
-4.0386700977676816e-07 8 7 5 2
-8.819065389132182e-08 8 7 5 3
-9.14237613417882e-06 8 7 5 4
-0.0021003951482680455 8 7 5 5
-1.0100840020050376e-07 8 7 6 1
4.626675702588415e-08 8 7 6 2
-1.7537647359906567e-08 8 7 6 3
-1.2125600630577258e-06 8 7 6 4
1.6441080485416702e-06 8 7 6 5
-0.0020843689450343234 8 7 6 6
0.00010135360170174299 8 7 7 1
-0.00012786911590283447 8 7 7 2
-0.00042814751569877587 8 7 7 3
-8.726637350691045e-08 8 7 7 4
1.11379312263335e-06 8 7 7 5
-1.5279586150857675e-07 8 7 7 6
0.005368819605257924 8 7 7 7
-0.0001610244050035934 8 7 8 1
0.00029522930862024117 8 7 8 2
-0.00014657513463599604 8 7 8 3
-3.416300463048991e-07 8 7 8 4
-1.9426207127883302e-07 8 7 8 5
-5.236112888332962e-08 8 7 8 6
0.02701320621398682 8 7 8 7
1.171194892801941 8 8 1 1
-0.011133793191249762 8 8 2 1
1.1609977565073935 8 8 2 2
-0.0048683908294301316 8 8 3 1
-0.015458162908299372 8 8 3 2
1.1661653383739936 8 8 3 3
6.030948142665715e-07 8 8 4 1
1.840737144043208e-07 8 8 4 2
3.782511033344312e-08 8 8 4 3
0.17963138492470124 8 8 4 4
-3.163982161768113e-07 8 8 5 1
-1.2896016368632442e-06 8 8 5 2
-3.6387870298896126e-07 8 8 5 3
6.308985744651809e-06 8 8 5 4
0.1798694198815026 8 8 5 5
1.2167894747801016e-07 8 8 6 1
3.3701353355652413e-07 8 8 6 2
7.197812823397026e-07 8 8 6 3
1.3368684807170154e-06 8 8 6 4
5.902281941632835e-06 8 8 6 5
0.17963258704533905 8 8 6 6
0.00015290088647147327 8 8 7 1
-0.00030876780054157584 8 8 7 2
-3.662686749526552e-05 8 8 7 3
-3.395723609982081e-07 8 8 7 4
-2.988572714581804e-05 8 8 7 5
1.1815156678296012e-06 8 8 7 6
0.79710653046922 8 8 7 7
0.00011948789333979171 8 8 8 1
0.00013434460344121426 8 8 8 2
-0.0002231131834740799 8 8 8 3
3.400999232861396e-06 8 8 8 4
1.1890458758607321e-05 8 8 8 5
2.2996652209696713e-06 8 8 8 6
0.005485705380129172 8 8 8 7
0.8523499765295602 8 8 8 8
-0.002155627390038746 9 1 1 1
-0.00021090937165341823 9 1 2 1
-0.0018648585525857615 9 1 2 2
-0.00047875081769525277 9 1 3 1
4.0225194525486206e-07 9 1 3 2
-0.001863703450773167 9 1 3 3
-1.1523839023973961e-06 9 1 4 1
-1.142088971093843e-06 9 1 4 2
1.8816696497075415e-07 9 1 4 3
-0.0006896011597346179 9 1 4 4
-1.1457868289075081e-06 9 1 5 1
1.6146186428753025e-06 9 1 5 2
-6.507384213235207e-07 9 1 5 3
1.6071222708338278e-06 9 1 5 4
-0.0006923403622060416 9 1 5 5
4.720006845076242e-08 9 1 6 1
-2.8307268568161366e-07 9 1 6 2
-4.5040468213172643e-07 9 1 6 3
2.388209382988221e-09 9 1 6 4
5.11969589943612e-07 9 1 6 5
-0.0006895945692483937 9 1 6 6
0.008669047326757807 9 1 7 1
0.005457683241082803 9 1 7 2
-0.009608734008932607 9 1 7 3
-4.7357180426311215e-07 9 1 7 4
6.834591773936114e-07 9 1 7 5
3.0371319265217296e-07 9 1 7 6
-1.3980435972631977e-05 9 1 7 7
0.0078472552952849 9 1 8 1
0.0074799140430650765 9 1 8 2
-0.009169061916865139 9 1 8 3
-3.997982550424214e-07 9 1 8 4
-5.188912604432632e-08 9 1 8 5
5.6398411321780255e-08 9 1 8 6
0.00021408034790832298 9 1 8 7
8.167068088603985e-05 9 1 8 8
0.026195429721581776 9 1 9 1
-0.002712112825414863 9 2 1 1
-0.00015022924356624428 9 2 2 1
-0.0031452479904123553 9 2 2 2
3.6272666470169193e-07 9 2 3 1
-0.000492062870285085 9 2 3 2
-0.0027229372476840897 9 2 3 3
9.480254845531125e-07 9 2 4 1
-1.1838468659253302e-06 9 2 4 2
-2.1034166189229895e-07 9 2 4 3
0.0010261766973914377 9 2 4 4
4.5075001240755896e-08 9 2 5 1
-3.0780055211343687e-06 9 2 5 2
9.76839415749076e-07 9 2 5 3
9.698430880946306e-07 9 2 5 4
0.0010303665268815067 9 2 5 5
3.032408484298675e-08 9 2 6 1
8.675955390361201e-07 9 2 6 2
5.118874469420726e-07 9 2 6 3
3.232282064138141e-09 9 2 6 4
-1.5595898242355787e-06 9 2 6 5
0.0010261997708808967 9 2 6 6
0.012348535760541407 9 2 7 1
-0.011488422743360475 9 2 7 2
0.014699900805232912 9 2 7 3
-5.219391334286143e-07 9 2 7 4
-1.2239993225556307e-06 9 2 7 5
-6.603364463921031e-07 9 2 7 6
-0.00035385496606271845 9 2 7 7
0.010139627281009634 9 2 8 1
0.005371567995020507 9 2 8 2
-0.013333804235290566 9 2 8 3
3.2114014689228677e-07 9 2 8 4
6.649597036478629e-07 9 2 8 5
3.6983938165867364e-07 9 2 8 6
-6.616550239409391e-05 9 2 8 7
1.902991130793299e-06 9 2 8 8
-0.0027857093831707646 9 2 9 1
0.032659586113261134 9 2 9 2
-0.006170176209524589 9 3 1 1
-1.4810281803894323e-06 9 3 2 1
-0.006180386444082543 9 3 2 2
-0.00014473599472438652 9 3 3 1
-0.00021404430798818366 9 3 3 2
-0.007138157172661576 9 3 3 3
1.2203057997426956e-06 9 3 4 1
-4.4835986219385625e-07 9 3 4 2
-3.107387539268321e-07 9 3 4 3
0.001119794043717382 9 3 4 4
-2.773156100466013e-07 9 3 5 1
-2.3146651390289917e-06 9 3 5 2
6.972236554422303e-08 9 3 5 3
5.173299901260234e-07 9 3 5 4
0.0011242581556782964 9 3 5 5
-1.3409447991328027e-08 9 3 6 1
1.6586333731195163e-07 9 3 6 2
8.316773358803783e-07 9 3 6 3
-6.020752444665902e-09 9 3 6 4
-3.107066719912986e-07 9 3 6 5
0.0011197911292834687 9 3 6 6
0.004218188067103327 9 3 7 1
-0.007153137797562692 9 3 7 2
0.0029902259699909053 9 3 7 3
-2.8469645024103915e-07 9 3 7 4
-1.1076811468456072e-06 9 3 7 5
-1.0960787095123731e-07 9 3 7 6
-0.00027258174621553103 9 3 7 7
-0.004749074162785268 9 3 8 1
0.005760493920408945 9 3 8 2
-0.013022013909074266 9 3 8 3
4.2119713089081296e-07 9 3 8 4
5.797523128755478e-07 9 3 8 5
4.0148777164422413e-07 9 3 8 6
2.5759520664804025e-05 9 3 8 7
-0.00017980239572113287 9 3 8 8
-0.003941003664295617 9 3 9 1
0.016392555121827013 9 3 9 2
0.019600153421827086 9 3 9 3
-1.0420227406011717e-05 9 4 1 1
-6.589303158993558e-08 9 4 2 1
-1.0454201605075807e-05 9 4 2 2
6.848780652722216e-07 9 4 3 1
-3.179715716334627e-07 9 4 3 2
-9.65463716001245e-06 9 4 3 3
2.709114188888921e-09 9 4 4 1
-5.6507696544087194e-09 9 4 4 2
-1.154774280385619e-09 9 4 4 3
-0.0006637096258444966 9 4 4 4
-1.2512521216811454e-08 9 4 5 1
-4.515437288693983e-09 9 4 5 2
2.6823886205627855e-09 9 4 5 3
-0.00010797994824537736 9 4 5 4
-0.0005786792001922481 9 4 5 5
-3.398280920133429e-09 9 4 6 1
5.074683108363558e-09 9 4 6 2
-4.058021630380401e-09 9 4 6 3
-0.00014224390336744645 9 4 6 4
-3.738117796974944e-09 9 4 6 5
-0.0005726191037657771 9 4 6 6
-1.9461992426637004e-07 9 4 7 1
-3.2111341433566136e-07 9 4 7 2
-9.774277616587605e-09 9 4 7 3
1.2341234031252115e-07 9 4 7 4
-4.490175364992015e-06 9 4 7 5
2.5789125290798668e-06 9 4 7 6
-5.930205009238316e-07 9 4 7 7
-4.4998151661890157e-07 9 4 8 1
4.837131689363996e-08 9 4 8 2
9.087260974751167e-08 9 4 8 3
1.9267475639588184e-06 9 4 8 4
1.211624188313315e-06 9 4 8 5
-5.32879612046792e-07 9 4 8 6
-6.894851955188677e-08 9 4 8 7
-8.105996495337445e-07 9 4 8 8
-6.606878169902369e-07 9 4 9 1
1.3278286677738767e-07 9 4 9 2
2.474626577094408e-07 9 4 9 3
3.203878629979875e-06 9 4 9 4
-1.5812436611472458e-05 9 5 1 1
4.3485934611356735e-07 9 5 2 1
-1.6601745442783983e-05 9 5 2 2
-5.679861350875767e-07 9 5 3 1
-1.6687301571197157e-07 9 5 3 2
-1.4152554237899312e-05 9 5 3 3
-7.1746552503893835e-09 9 5 4 1
3.0960016129403247e-09 9 5 4 2
-0.0014257190114541076 9 5 4 4
9.547314412139228e-09 9 5 5 1
7.348227227105769e-09 9 5 5 2
-5.751047754576639e-09 9 5 5 3
-5.010053322188796e-05 9 5 5 4
-0.0016684896456617313 9 5 5 5
3.1110670323638306e-09 9 5 6 2
-1.450436809185619e-08 9 5 6 3
3.0609711152590404e-07 9 5 6 4
-0.00014073572863897106 9 5 6 5
-0.0014272626337443624 9 5 6 6
4.3179130948158287e-07 9 5 7 1
-7.245221625156571e-07 9 5 7 2
2.273109696366562e-07 9 5 7 3
-1.8872960430008907e-06 9 5 7 4
-1.094885991815119e-05 9 5 7 5
-2.8428229959667854e-06 9 5 7 6
-1.0718537245184821e-06 9 5 7 7
-4.9853398850407934e-08 9 5 8 1
5.267717182765687e-07 9 5 8 2
-5.812852990692831e-07 9 5 8 3
1.4538574847982135e-06 9 5 8 4
5.1715449667831466e-06 9 5 8 5
2.859898743142313e-07 9 5 8 6
-2.670823215913895e-07 9 5 8 7
-1.4397472289071284e-06 9 5 8 8
-2.5705172154095165e-07 9 5 9 1
1.3660934123193807e-06 9 5 9 2
8.539455744755399e-07 9 5 9 3
1.1827039207016005e-07 9 5 9 4
4.017803074046925e-06 9 5 9 5
2.6157067617058877e-06 9 6 1 1
-1.721663283846455e-07 9 6 2 1
3.4595232256544252e-06 9 6 2 2
-2.13577991855434e-07 9 6 3 1
3.846750671145924e-07 9 6 3 2
3.4153646628861628e-06 9 6 3 3
-2.583623447325286e-08 9 6 4 1
5.127320178091244e-09 9 6 4 2
-2.2657265622939718e-09 9 6 4 3
-0.0018294283003127874 9 6 4 4
6.347675119345424e-09 9 6 5 1
4.925053012283265e-08 9 6 5 2
1.4984567936105174e-09 9 6 5 3
1.1809651108166083e-08 9 6 5 4
-0.0018271082386821555 9 6 5 5
-2.784412765531369e-09 9 6 6 1
3.4752239397498996e-09 9 6 6 2
-4.024161808106628e-08 9 6 6 3
-4.3118659228506334e-05 9 6 6 4
-0.00010852284959683883 9 6 6 5
-0.002115992882175072 9 6 6 6
-1.0943373803791918e-07 9 6 7 1
2.0512119295132172e-07 9 6 7 2
-8.08703255583848e-08 9 6 7 3
4.394943241246871e-08 9 6 7 4
-3.3809423729500775e-06 9 6 7 5
-1.0943781251643875e-06 9 6 7 6
-2.220703681090607e-06 9 6 7 7
1.5192660247755648e-07 9 6 8 1
-1.6846999954971945e-07 9 6 8 2
3.6661533019098987e-07 9 6 8 3
-4.778967215618089e-07 9 6 8 4
1.4752455315377808e-06 9 6 8 5
-1.163962831118318e-06 9 6 8 6
1.1357968238237423e-07 9 6 8 7
-2.078445907722824e-06 9 6 8 8
1.3138621117940728e-07 9 6 9 1
-4.998835674889636e-07 9 6 9 2
-5.983333879041728e-07 9 6 9 3
-4.4523509100896554e-07 9 6 9 4
1.425715889020421e-06 9 6 9 5
3.4126297053052984e-06 9 6 9 6
0.009772311847990236 9 7 1 1
0.00972100560285874 9 7 2 1
-0.012239372065365853 9 7 2 2
-0.0029509183940690203 9 7 3 1
0.004153930933564943 9 7 3 2
0.0036927381316041157 9 7 3 3
-9.928902311958095e-08 9 7 4 1
-2.1554209150344946e-07 9 7 4 2
9.59307532011071e-09 9 7 4 3
-0.0021492768515754147 9 7 4 4
2.308793082460679e-07 9 7 5 1
-4.280425461918302e-07 9 7 5 2
1.1165856282102509e-07 9 7 5 3
-7.86837016624718e-06 9 7 5 4
-0.002173304585092819 9 7 5 5
3.090555968722705e-08 9 7 6 1
-8.34732315074928e-08 9 7 6 2
-3.360012036555756e-08 9 7 6 3
1.265076845282838e-06 9 7 6 4
-1.4701419294402607e-06 9 7 6 5
-0.0021497811536608747 9 7 6 6
0.00018942175943331826 9 7 7 1
-8.640213540062301e-05 9 7 7 2
0.0005515305706291383 9 7 7 3
-1.239145529427626e-07 9 7 7 4
1.0693811307272814e-06 9 7 7 5
3.0415420472293286e-07 9 7 7 6
-0.00017592453073162623 9 7 7 7
0.0003075459502340767 9 7 8 1
-9.655125444274341e-05 9 7 8 2
-8.636493977373086e-05 9 7 8 3
-2.2993630866794023e-07 9 7 8 4
-6.677524393001645e-07 9 7 8 5
-1.2536183814397226e-07 9 7 8 6
0.0074892481762269866 9 7 8 7
-0.00495156865153413 9 7 8 8
-5.182352894774966e-05 9 7 9 1
0.0003826898997152571 9 7 9 2
0.00015433939624322 9 7 9 3
-5.196579859720399e-08 9 7 9 4
1.8756277727601213e-07 9 7 9 5
9.367130149446991e-08 9 7 9 6
0.028995381883914956 9 7 9 7
0.010290084378642362 9 8 1 1
0.009584920380798456 9 8 2 1
0.007652389399113242 9 8 2 2
-0.0075859486894794695 9 8 3 1
-0.004145397387101424 9 8 3 2
-0.012513673590536437 9 8 3 3
-1.9904091992711482e-07 9 8 4 1
-1.541532261638647e-07 9 8 4 2
7.633192942844597e-08 9 8 4 3
0.001062952313084524 9 8 4 4
1.828485966699416e-07 9 8 5 1
2.3918311673637114e-07 9 8 5 2
-1.0372914455444031e-07 9 8 5 3
-1.0179330301961783e-06 9 8 5 4
0.0010718967338480382 9 8 5 5
1.1984772757376746e-07 9 8 6 1
6.461021021970087e-08 9 8 6 2
2.750397103353452e-07 9 8 6 3
-1.2982654872896916e-06 9 8 6 4
2.1387117231811768e-06 9 8 6 5
0.001056984702232318 9 8 6 6
6.0852231648266845e-05 9 8 7 1
7.555907449764042e-05 9 8 7 2
-1.861439009862709e-05 9 8 7 3
-2.04548722359943e-07 9 8 7 4
-1.1184360643546371e-06 9 8 7 5
2.833686466883264e-07 9 8 7 6
-0.014404671498442313 9 8 7 7
0.00014547747486875953 9 8 8 1
-7.593469553924038e-06 9 8 8 2
0.0002017293075866674 9 8 8 3
-1.364160470447522e-07 9 8 8 4
-2.142248216692718e-07 9 8 8 5
1.284633287178209e-07 9 8 8 6
0.0024101965948704765 9 8 8 7
0.001093073469588558 9 8 8 8
9.160854912097456e-05 9 8 9 1
-7.941313809947396e-05 9 8 9 2
-0.00027946447400809443 9 8 9 3
-2.7273296348087234e-07 9 8 9 4
-1.2928220105850276e-07 9 8 9 5
-1.7373913594595973e-07 9 8 9 6
0.0036861329354415124 9 8 9 7
0.03239707323001927 9 8 9 8
1.1473931501291157 9 9 1 1
-0.003101623039015519 9 9 2 1
1.1544634446878959 9 9 2 2
-0.004374604078808345 9 9 3 1
0.017985287894456074 9 9 3 2
1.1403187284077163 9 9 3 3
6.231467586898355e-07 9 9 4 1
3.361060722037447e-08 9 9 4 2
7.686814932340608e-08 9 9 4 3
0.17831998046641231 9 9 4 4
-1.2582148648527345e-07 9 9 5 1
-8.311085435769092e-07 9 9 5 2
3.0987109951603314e-07 9 9 5 3
1.202301561853412e-06 9 9 5 4
0.17855616246321526 9 9 5 5
1.375326459330357e-07 9 9 6 1
-3.809497921488103e-07 9 9 6 2
8.605091397322816e-07 9 9 6 3
-1.3365448678244242e-06 9 9 6 4
-7.4429687163949056e-06 9 9 6 5
0.17832014721830663 9 9 6 6
0.00022234787473378298 9 9 7 1
-0.00037712172329067584 9 9 7 2
0.0002108419510954129 9 9 7 3
-3.442192918687115e-07 9 9 7 4
-2.9868839327588645e-05 9 9 7 5
-1.6744882856493647e-06 9 9 7 6
0.7783857670887729 9 9 7 7
-4.996357113057341e-05 9 9 8 1
2.4890101235259007e-05 9 9 8 2
-0.00011923760809937357 9 9 8 3
4.627377351488708e-06 9 9 8 4
1.2257099195962206e-05 9 9 8 5
3.2736304769070345e-06 9 9 8 6
-0.0022695222761487457 9 9 8 7
0.7730707982416103 9 9 8 8
-5.379111026015531e-05 9 9 9 1
0.000472053313213377 9 9 9 2
0.00016674908027978821 9 9 9 3
-1.5138967472050321e-06 9 9 9 4
-2.2530167453571594e-06 9 9 9 5
-2.029592409815287e-06 9 9 9 6
-6.257931835762509e-05 9 9 9 7
0.0009171822238336902 9 9 9 8
0.8240688301652354 9 9 9 9
-0.001683870177371755 10 1 1 1
4.002887941196158e-05 10 1 2 1
-0.0014561739051320594 10 1 2 2
-0.00040724255285554296 10 1 3 1