 &FCI NORB=13,NELEC=17,MS2=0,
  ORBSYM=1,1,1,1,1,1,1,1,1,1,1,1,1,
  ISYM=1,
 &END
4.18291433185933 1 1 1 1
-1.794146175036101e-05 2 1 1 1
0.21984674173776783 2 1 2 1
3.7414274364889852 2 2 1 1
-1.768438367801693e-05 2 2 2 1
4.179328606432912 2 2 2 2
-0.0003732213890550734 3 1 1 1
8.369253157885814e-06 3 1 2 1
-0.00032217364943712564 3 1 2 2
0.2199877349557017 3 1 3 1
0.00011025413448361053 3 2 1 1
-2.4985814435570293e-05 3 2 2 1
0.00012761099622736073 3 2 2 2
-1.3744584953125128e-06 3 2 3 1
0.21986636620486721 3 2 3 2
3.743242529321548 3 3 1 1
-1.5486985623532437e-05 3 3 2 1
3.7416946106791165 3 3 2 2
-0.0003732850840078475 3 3 3 1
0.00012788420309258004 3 3 3 2
4.183529893424771 3 3 3 3
0.0008410000186015545 4 1 1 1
-0.00046422798853250455 4 1 2 1
0.0007231763385359187 4 1 2 2
3.3007076385173436e-07 4 1 3 1
-2.250140464511029e-06 4 1 3 2
0.0007250297451271485 4 1 3 3
0.01687804041488223 4 1 4 1
-0.0059053580735413435 4 2 1 1
5.5891296157970385e-05 4 2 2 1
-0.006810182157718428 4 2 2 2
-4.322048285615863e-07 4 2 3 1
-4.925438258655857e-07 4 2 3 2
-0.005911877248005287 4 2 3 3
-0.0047789038874397225 4 2 4 1
0.015764920714947908 4 2 4 2
-2.7276701188246984e-06 4 3 1 1
5.666842519379005e-07 4 3 2 1
-3.2504979860259067e-06 4 3 2 2
5.6370239507835064e-05 4 3 3 1
-0.00047548431535553653 4 3 3 2
-2.7504382230240322e-06 4 3 3 3
0.004214537821446476 4 3 4 1
0.0012715187889707547 4 3 4 2
0.04586205187336128 4 3 4 3
1.1519570871992373 4 4 1 1
-0.005222043123577666 4 4 2 1
1.1507204674650557 4 4 2 2
0.004606981762983738 4 4 3 1
0.0014037644585046494 4 4 3 2
1.1840505334316191 4 4 3 3
-9.774031466788815e-05 4 4 4 1
-2.9132247466897172e-05 4 4 4 2
1.8395123389212814e-05 4 4 4 3
0.8502359864595452 4 4 4 4
-0.0030728678266039615 5 1 1 1
-0.00013479696251901356 5 1 2 1
-0.0026474858325812333 5 1 2 2
0.00036536461161550577 5 1 3 1
-9.18474946735312e-06 5 1 3 2
-0.002654571753487552 5 1 3 3
0.009303329859613619 5 1 4 1
0.006718828464429982 5 1 4 2
0.016712560213200608 5 1 4 3
-7.062754898955239e-05 5 1 4 4
0.03107920085860882 5 1 5 1
-0.001722072433515791 5 2 1 1
-0.00020554005294303186 5 2 2 1
-0.001998257676510442 5 2 2 2
-5.552118658035732e-06 5 2 3 1
0.0003713109381332948 5 2 3 2
-0.0017246839653576181 5 2 3 3
0.006689405446057795 5 2 4 1
-0.009730392019154743 5 2 4 2
-0.012467426379117153 5 2 4 3
-0.0002692742818134297 5 2 4 4
-0.01013307244651247 5 2 5 1
0.02183694481436528 5 2 5 2
0.004682176674542803 5 3 1 1
-1.5409327209093805e-06 5 3 2 1
0.004686987135693008 5 3 2 2
-0.00020926071708148546 5 3 3 1
-0.00013080966466233368 5 3 3 2
0.005413821410655774 5 3 3 3
-0.00897955181343223 5 3 4 1
0.005818517399196043 5 3 4 2
0.0018357525253607457 5 3 4 3
0.00023669702699468325 5 3 4 4
-0.0044263334289092295 5 3 5 1
-0.014127162481214919 5 3 5 2
0.02644121882079353 5 3 5 3
0.02016629700105649 5 4 1 1
0.007335906025754242 5 4 2 1
-0.0006534786100736117 5 4 2 2
0.00430100924517667 5 4 3 1
-0.0036471481547370155 5 4 3 2
0.01199784373695075 5 4 3 3
0.00010135360170174299 5 4 4 1
-0.00012786911590283447 5 4 4 2
-0.00042814751569877587 5 4 4 3
0.005368819605257924 5 4 4 4
-0.0001610244050035934 5 4 5 1
0.00029522930862024117 5 4 5 2
-0.00014657513463599604 5 4 5 3
0.02701320621398682 5 4 5 4
1.171194892801941 5 5 1 1
-0.011133793191249762 5 5 2 1
1.1609977565073935 5 5 2 2
-0.0048683908294301316 5 5 3 1
-0.015458162908299372 5 5 3 2
1.1661653383739936 5 5 3 3
0.00015290088647147327 5 5 4 1
-0.00030876780054157584 5 5 4 2
-3.662686749526552e-05 5 5 4 3
0.79710653046922 5 5 4 4
0.00011948789333979171 5 5 5 1
0.00013434460344121426 5 5 5 2
-0.0002231131834740799 5 5 5 3
0.005485705380129172 5 5 5 4
0.8523499765295602 5 5 5 5
-0.002155627390038746 6 1 1 1
-0.00021090937165341823 6 1 2 1
-0.0018648585525857615 6 1 2 2
-0.00047875081769525277 6 1 3 1
4.0225194525486206e-07 6 1 3 2
-0.001863703450773167 6 1 3 3
0.008669047326757807 6 1 4 1
0.005457683241082803 6 1 4 2
-0.009608734008932607 6 1 4 3
-1.3980435972631977e-05 6 1 4 4
0.0078472552952849 6 1 5 1
0.0074799140430650765 6 1 5 2
-0.009169061916865139 6 1 5 3
0.00021408034790832298 6 1 5 4
8.167068088603985e-05 6 1 5 5
0.026195429721581776 6 1 6 1
-0.002712112825414863 6 2 1 1
-0.00015022924356624428 6 2 2 1
-0.0031452479904123553 6 2 2 2
3.6272666470169193e-07 6 2 3 1
-0.000492062870285085 6 2 3 2
-0.0027229372476840897 6 2 3 3
0.012348535760541407 6 2 4 1
-0.011488422743360475 6 2 4 2
0.014699900805232912 6 2 4 3
-0.00035385496606271845 6 2 4 4
0.010139627281009634 6 2 5 1
0.005371567995020507 6 2 5 2
-0.013333804235290566 6 2 5 3
-6.616550239409391e-05 6 2 5 4
1.902991130793299e-06 6 2 5 5
-0.0027857093831707646 6 2 6 1
0.032659586113261134 6 2 6 2
-0.006170176209524589 6 3 1 1
-1.4810281803894323e-06 6 3 2 1
-0.006180386444082543 6 3 2 2
-0.00014473599472438652 6 3 3 1
-0.00021404430798818366 6 3 3 2
-0.007138157172661576 6 3 3 3
0.004218188067103327 6 3 4 1
-0.007153137797562692 6 3 4 2
0.0029902259699909053 6 3 4 3
-0.00027258174621553103 6 3 4 4
-0.004749074162785268 6 3 5 1
0.005760493920408945 6 3 5 2
-0.013022013909074266 6 3 5 3
2.5759520664804025e-05 6 3 5 4
-0.00017980239572113287 6 3 5 5
-0.003941003664295617 6 3 6 1
0.016392555121827013 6 3 6 2
0.019600153421827086 6 3 6 3
0.009772311847990236 6 4 1 1
0.00972100560285874 6 4 2 1
-0.012239372065365853 6 4 2 2
-0.0029509183940690203 6 4 3 1
0.004153930933564943 6 4 3 2
0.0036927381316041157 6 4 3 3
0.00018942175943331826 6 4 4 1
-8.640213540062301e-05 6 4 4 2
0.0005515305706291383 6 4 4 3
-0.00017592453073162623 6 4 4 4
0.0003075459502340767 6 4 5 1
-9.655125444274341e-05 6 4 5 2
-8.636493977373086e-05 6 4 5 3
0.0074892481762269866 6 4 5 4
-0.00495156865153413 6 4 5 5
-5.182352894774966e-05 6 4 6 1
0.0003826898997152571 6 4 6 2
0.00015433939624322 6 4 6 3
0.028995381883914956 6 4 6 4
0.010290084378642362 6 5 1 1
0.009584920380798456 6 5 2 1
0.007652389399113242 6 5 2 2
-0.0075859486894794695 6 5 3 1
-0.004145397387101424 6 5 3 2
-0.012513673590536437 6 5 3 3
6.0852231648266845e-05 6 5 4 1
7.555907449764042e-05 6 5 4 2
-1.861439009862709e-05 6 5 4 3
-0.014404671498442313 6 5 4 4
0.00014547747486875953 6 5 5 1
-7.593469553924038e-06 6 5 5 2
0.0002017293075866674 6 5 5 3
0.0024101965948704765 6 5 5 4
0.001093073469588558 6 5 5 5
9.160854912097456e-05 6 5 6 1
-7.941313809947396e-05 6 5 6 2
-0.00027946447400809443 6 5 6 3
0.0036861329354415124 6 5 6 4
0.03239707323001927 6 5 6 5
1.1473931501291157 6 6 1 1
-0.003101623039015519 6 6 2 1
1.1544634446878959 6 6 2 2
-0.004374604078808345 6 6 3 1
0.017985287894456074 6 6 3 2
1.1403187284077163 6 6 3 3
0.00022234787473378298 6 6 4 1
-0.00037712172329067584 6 6 4 2
0.0002108419510954129 6 6 4 3
0.7783857670887729 6 6 4 4
-4.996357113057341e-05 6 6 5 1
2.4890101235259007e-05 6 6 5 2
-0.00011923760809937357 6 6 5 3
-0.0022695222761487457 6 6 5 4
0.7730707982416103 6 6 5 5
-5.379111026015531e-05 6 6 6 1
0.000472053313213377 6 6 6 2
0.00016674908027978821 6 6 6 3
-6.257931835762509e-05 6 6 6 4
0.0009171822238336902 6 6 6 5
0.8240688301652354 6 6 6 6
-0.001683870177371755 7 1 1 1
4.002887941196158e-05 7 1 2 1
-0.0014561739051320594 7 1 2 2
-0.00040724255285554296 7 1 3 1
-1.58707257220733e-06 7 1 3 2
-0.0014567223441127415 7 1 3 3
-0.007051271879365646 7 1 4 1
0.005347804938818233 7 1 4 2
0.018239087248436793 7 1 4 3
4.878072439254974e-05 7 1 4 4
0.007789162106419433 7 1 5 1
-0.010602546236871792 7 1 5 2
0.00871735076755088 7 1 5 3
-0.0002024214022085233 7 1 5 4
-0.0001401523830862757 7 1 5 5
-0.014795118255267994 7 1 6 1
0.0013679674610299509 7 1 6 2
-0.00697808377815354 7 1 6 3
0.00017261112352459792 7 1 6 4
2.0573593794167666e-05 7 1 6 5
-0.0002452223674502406 7 1 6 6
0.025780945525312758 7 1 7 1
0.000499920297194237 7 2 1 1
-0.00011495545942364667 7 2 2 1
0.0005855907224122382 7 2 2 2
3.4772809045835495e-07 7 2 3 1
-0.0004193366783304017 7 2 3 2
0.0005054401171456394 7 2 3 3
0.005201224184440827 7 2 4 1
0.007699470163989656 7 2 4 2
0.016399641471802368 7 2 4 3
0.00015020497478566806 7 2 4 4
0.016069946959949007 7 2 5 1
-0.011934104717258327 7 2 5 2
0.0007910503715726733 7 2 5 3
-0.00018483590569509707 7 2 5 4
1.2225341451975437e-05 7 2 5 5
0.003720759031702286 7 2 6 1
0.0065315351793331314 7 2 6 2
-0.004388501057032735 7 2 6 3
0.0002594732109993258 7 2 6 4
5.542417247405484e-05 7 2 6 5
0.00010667691464229489 7 2 6 6
0.010080728020684403 7 2 7 1
0.02479358607434835 7 2 7 2
-0.005255217729635697 7 3 1 1
3.934624598325571e-06 7 3 2 1
-0.0052659086285413576 7 3 2 2
-0.00011298185626150138 7 3 3 1
3.853703946320292e-05 7 3 3 2
-0.00608354308763766 7 3 3 3
-0.0026963810774999933 7 3 4 1
-0.004310091830530573 7 3 4 2
-0.0006513790475933067 7 3 4 3
-0.0001959739408172691 7 3 4 4
-0.012702165796307032 7 3 5 1
0.0025493937294334885 7 3 5 2
0.004777720883580168 7 3 5 3
2.1719529433444486e-05 7 3 5 4
-0.00036667029912608733 7 3 5 5
-0.016332994024743544 7 3 6 1
0.0007927224001757191 7 3 6 2
0.008590828235619782 7 3 6 3
-1.696992932646865e-05 7 3 6 4
-0.0001514079533756922 7 3 6 5
-0.00021144853488856629 7 3 6 6
0.004891743620957839 7 3 7 1
-0.014175943746126594 7 3 7 2
0.027356388412792632 7 3 7 3
-0.007072018596065825 7 4 1 1
0.0057256139194719466 7 4 2 1
0.009035876498614884 7 4 2 2
0.008499097372771158 7 4 3 1
0.00662735399399073 7 4 3 2
-0.00046243470661009174 7 4 3 3
0.0001466472391072296 7 4 4 1
7.850503944778576e-05 7 4 4 2
0.0004781805278986366 7 4 4 3
0.0006168041251582088 7 4 4 4
0.00021480851824815436 7 4 5 1
-0.00015714049700896648 7 4 5 2
1.664600434506488e-05 7 4 5 3
-0.0012704402913110335 7 4 5 4
-0.011205765984870136 7 4 5 5
2.9197095629743855e-05 7 4 6 1
0.0002327457738971269 7 4 6 2
2.293936654130425e-05 7 4 6 3
-0.001290216401294703 7 4 6 4
-0.0018125678311128896 7 4 6 5
0.005061834992444627 7 4 6 6
0.00018602676015218848 7 4 7 1
0.0003475454096708086 7 4 7 2
-0.0001307384043623458 7 4 7 3
0.02725796414063424 7 4 7 4
0.014809978158787178 7 5 1 1
0.003076405691628931 7 5 2 1
-0.006953397359319427 7 5 2 2
-0.0023287865503451824 7 5 3 1
0.0019259845049372875 7 5 3 2
0.011439208294106266 7 5 3 3
-2.6016566088224554e-05 7 5 4 1
6.0862081343636804e-05 7 5 4 2
0.0001685806333999656 7 5 4 3
0.006414833371766721 7 5 4 4
0.0002184238151549179 7 5 5 1
-0.00022664136102915064 7 5 5 2
0.00016846736242472922 7 5 5 3
0.005770765201730314 7 5 5 4
0.0038427914131615778 7 5 5 5
2.448552440417816e-05 7 5 6 1
-6.252724524667366e-05 7 5 6 2
-0.00017933823781479726 7 5 6 3
0.008176821537951668 7 5 6 4
0.0001589242522151502 7 5 6 5
0.0019341647408137152 7 5 6 6
0.00015951009812803832 7 5 7 1
0.0002561386893333506 7 5 7 2
-0.00019276591973645693 7 5 7 3
-0.0035506065110476478 7 5 7 4
0.024380508258229214 7 5 7 5
-0.008751810058348459 7 6 1 1
0.0028548597911554744 7 6 2 1
0.014218460825875315 7 6 2 2
-0.012670195498997495 7 6 3 1
-0.002055003500906616 7 6 3 2
0.01661795934122836 7 6 3 3
4.273281875660027e-05 7 6 4 1
-1.1751957004741798e-05 7 6 4 2
5.4878614184092276e-05 7 6 4 3
0.008951789311185968 7 6 4 4
-6.594372026906014e-05 7 6 5 1
5.08600894882653e-05 7 6 5 2
-0.00010638415878125239 7 6 5 3
-0.0064208145967606985 7 6 5 4
0.005611655688979522 7 6 5 5
-0.00020025208160146475 7 6 6 1
0.00012905319552568905 7 6 6 2
0.00019899645386091966 7 6 6 3
-0.0021033346299426147 7 6 6 4
0.0007928857520797389 7 6 6 5
0.005639620874226262 7 6 6 6
-2.4216538897547968e-05 7 6 7 1
-6.367472935671723e-05 7 6 7 2
0.0002643529308338696 7 6 7 3
-0.0008881839496481794 7 6 7 4
-0.0025550440167379533 7 6 7 5
0.03401596451962017 7 6 7 6
1.138045656753836 7 7 1 1
0.011071003207607122 7 7 2 1
1.1372763473970056 7 7 2 2
0.005083540309920472 7 7 3 1
-0.01573504791020175 7 7 3 2
1.1401172942648743 7 7 3 3
1.1037847669634707e-05 7 7 4 1
-0.0002945113926624413 7 7 4 2
-8.646659245018347e-05 7 7 4 3
0.7753809680657616 7 7 4 4
-0.0003007481185403865 7 7 5 1
2.9002711808173125e-05 7 7 5 2
0.0002775697283084406 7 7 5 3
0.012630724651404523 7 7 5 4
0.7821208618049913 7 7 5 5
-0.00029994280039360576 7 7 6 1
-0.0002059690544737925 7 7 6 2
-0.00019263142513005434 7 7 6 3
0.0014621051569902455 7 7 6 4
0.006292249763547489 7 7 6 5
0.7487778941239389 7 7 6 6
7.54460490531415e-05 7 7 7 1
-0.00022651622225559168 7 7 7 2
0.00021349933537747045 7 7 7 3
0.0004468418796390594 7 7 7 4
0.0037339938015595875 7 7 7 5
0.005704373673185437 7 7 7 6
0.8111735221092135 7 7 7 7
0.005551633301679516 8 1 1 1
-8.5335099088923e-05 8 1 2 1
0.004778067375735516 8 1 2 2
-0.00020209246881434378 8 1 3 1
-4.418914656670751e-06 8 1 3 2
0.004791485131111333 8 1 3 3
0.011723696171254601 8 1 4 1
-0.014696230063873305 8 1 4 2
0.007467862369787191 8 1 4 3
-5.097777537668035e-06 8 1 4 4
0.00013319045556997808 8 1 5 1
0.00763268680303881 8 1 5 2
-0.01705168860707118 8 1 5 3
5.240500161875164e-06 8 1 5 4
0.00038193793980909605 8 1 5 5
-0.005234836378015455 8 1 6 1
0.01719149675010918 8 1 6 2
0.01505909029781203 8 1 6 3
0.0001313042108923393 8 1 6 4
-0.0002108012250529301 8 1 6 5
0.0005315326493028586 8 1 6 6
-0.0038492544499483285 8 1 7 1
3.606439440243045e-05 8 1 7 2
0.007977154937477299 8 1 7 3
0.00013482809951232742 8 1 7 4
-0.00021470067853486302 8 1 7 5
0.00018835604645260005 8 1 7 6
0.00029829087540789715 8 1 7 7
0.032251206703733874 8 1 8 1
-0.0010930560510231245 8 2 1 1
0.00036944818655624574 8 2 2 1
-0.0012736280731453246 8 2 2 2
-2.8020749715171142e-06 8 2 3 1
-0.00020416667837785574 8 2 3 2
-0.001095116662999204 8 2 3 3
-0.01096480399418205 8 2 4 1
-0.0057939463200751525 8 2 4 2
0.010801211726352674 8 2 4 3
-9.368046245838732e-05 8 2 4 4
-0.007742551308904023 8 2 5 1
-0.0063868069536658625 8 2 5 2
0.009413588139274528 8 2 5 3
-0.00022193449445860483 8 2 5 4
-0.00021681328481283865 8 2 5 5
-0.01735497137550194 8 2 6 1
0.0035810807041688937 8 2 6 2
0.004246349140459364 8 2 6 3
3.4430626773624505e-05 8 2 6 4
-8.372666154140704e-05 8 2 6 5
1.0184552571031875e-05 8 2 6 6
0.01310381907970471 8 2 7 1
-0.007024249636464713 8 2 7 2
0.018263298094154886 8 2 7 3
-2.076029931228244e-05 8 2 7 4
-6.338402538330753e-05 8 2 7 5
0.00014202601632889506 8 2 7 6
0.00016077749141003248 8 2 7 7
0.007418735135999975 8 2 8 1
0.0354933442389891 8 2 8 2
-0.0025751923715088576 8 3 1 1
-5.640723119395813e-07 8 3 2 1
-0.002576690750481494 8 3 2 2
0.0003749461775089175 8 3 3 1
-8.042665625451105e-05 8 3 3 2
-0.0029750277951410024 8 3 3 3
-0.0039744407757566925 8 3 4 1
0.00023103769084583195 8 3 4 2
-0.004617381548100787 8 3 4 3
-6.299504680649229e-05 8 3 4 4
-0.01227505027249881 8 3 5 1
0.0022015253283853026 8 3 5 2
0.005915031603104373 8 3 5 3
3.127129576330982e-05 8 3 5 4
-0.00024794163481816527 8 3 5 5
-0.004112833085090359 8 3 6 1
-0.003106789756648098 8 3 6 2
0.0008707646916662412 8 3 6 3
-5.496252520094791e-05 8 3 6 4
-7.0114951103489504e-06 8 3 6 5
-0.00012771766916172994 8 3 6 6
0.0031620363288066508 8 3 7 1
-0.0035617355272908498 8 3 7 2
0.010758046850846643 8 3 7 3
-9.268378763941588e-05 8 3 7 4
-3.997633243987534e-05 8 3 7 5
0.00015162105029882422 8 3 7 6
3.624328898767342e-05 8 3 7 7
-0.0006600515623912722 8 3 8 1
0.010740329918414932 8 3 8 2
0.011416372748864846 8 3 8 3
0.021820326876983532 8 4 1 1
-0.01401066833424231 8 4 2 1
0.0026324813053649715 8 4 2 2
0.0019521303980979028 8 4 3 1
0.006036359435840896 8 4 3 2
0.003933645167646783 8 4 3 3
-0.00027600605068208876 8 4 4 1
9.91594044525642e-06 8 4 4 2
0.00025849552907272587 8 4 4 3
0.00466494513607857 8 4 4 4
-4.8520437924008576e-05 8 4 5 1
-0.0002265816528335873 8 4 5 2
0.0002001308995372758 8 4 5 3
-0.000998840989268922 8 4 5 4
0.009159659322709228 8 4 5 5
-0.0002163736610466993 8 4 6 1
-4.0194352595804904e-05 8 4 6 2
-2.379660521694312e-05 8 4 6 3
-0.001232808813436354 8 4 6 4
-0.004721313105577012 8 4 6 5
0.010760636724909777 8 4 6 6
0.00025649549345551834 8 4 7 1
-1.1192955638797386e-05 8 4 7 2
0.00011675749312992965 8 4 7 3
-0.004504812012183154 8 4 7 4
0.002272843606568957 8 4 7 5
-0.010562894378850805 8 4 7 6
-0.006897465400405845 8 4 7 7
-9.000936932802462e-05 8 4 8 1
0.00045686622305662514 8 4 8 2
8.404929865925379e-05 8 4 8 3
0.03433358513061686 8 4 8 4
-0.0007294044039429454 8 5 1 1
-4.7124818477679103e-05 8 5 2 1
-0.007771728302325511 8 5 2 2
-0.01605805378389842 8 5 3 1
0.006341922034515004 8 5 3 2
0.005626449593199001 8 5 3 3
-3.161342928745684e-05 8 5 4 1
-0.00013931869283514238 8 5 4 2
-2.4886386595623222e-06 8 5 4 3
0.0019151863466795615 8 5 4 4
-0.00011956811076852591 8 5 5 1
3.011388215140447e-05 8 5 5 2
-2.502003216450174e-05 8 5 5 3
-0.0023209180053350457 8 5 5 4
-5.940876528426689e-05 8 5 5 5
-0.00016142923737013233 8 5 6 1
6.794367407375299e-07 8 5 6 2
6.923739724093901e-05 8 5 6 3
0.006013922285130385 8 5 6 4
0.0012608405197184636 8 5 6 5
0.006245298678551539 8 5 6 6
-0.00010588767220708193 8 5 7 1
-8.404280783105997e-05 8 5 7 2
9.647669427823709e-05 8 5 7 3
-0.0060236408256309215 8 5 7 4
0.005140309204447725 8 5 7 5
0.009207190940837435 8 5 7 6
-0.008156509149888821 8 5 7 7
6.858298046204792e-05 8 5 8 1
0.00010961398086435722 8 5 8 2
0.00011305830931934702 8 5 8 3
0.0006907513521133186 8 5 8 4
0.03387125810768381 8 5 8 5
-0.01232443333711906 8 6 1 1
-5.4242719895194814e-05 8 6 2 1
-0.002550381773224837 8 6 2 2
0.0060094189060003285 8 6 3 1
0.0006648779194399043 8 6 3 2
-0.005610359568020276 8 6 3 3
-5.612561276460862e-05 8 6 4 1
-0.00010460510793423599 8 6 4 2
0.00010185499731560821 8 6 4 3
-0.001337913940680949 8 6 4 4
-0.00019938495195263514 8 6 5 1
-4.971722097539658e-06 8 6 5 2
3.164663805189848e-05 8 6 5 3
-0.0012763871446306438 8 6 5 4
-0.006605612096606817 8 6 5 5
-0.0002591407066257783 8 6 6 1
0.00016289901140592833 8 6 6 2
0.0001910555190940253 8 6 6 3
-0.0029446225559290155 8 6 6 4
-0.0031944918343251305 8 6 6 5
-0.0037572615477715473 8 6 6 6
0.00014209511012126322 8 6 7 1
-7.000327222849489e-05 8 6 7 2
0.0003030473111832415 8 6 7 3
0.004415139862120327 8 6 7 4
-0.0029051537379408084 8 6 7 5
-0.0005616192123781479 8 6 7 6
-0.002447528872837361 8 6 7 7
0.00023523273013074039 8 6 8 1
0.0003458791725960434 8 6 8 2
0.00013552047275002666 8 6 8 3
-0.0016750371881944443 8 6 8 4
-0.004781336057038487 8 6 8 5
0.020279609126638946 8 6 8 6
-0.004943181194449044 8 7 1 1
0.007005336357388248 8 7 2 1
-0.00862211360907459 8 7 2 2
0.006038489908867119 8 7 3 1
0.008009214505658464 8 7 3 2
0.010996494304498845 8 7 3 3
7.623938910855421e-05 8 7 4 1
-8.800100709288687e-05 8 7 4 2
-6.532910682663217e-05 8 7 4 3
0.008852476878508165 8 7 4 4
-0.00015939526484487897 8 7 5 1
4.932870936895785e-05 8 7 5 2
-3.6834687730135725e-05 8 7 5 3
0.0037703088693198873 8 7 5 4
-0.010873091216533709 8 7 5 5
4.0225287208390875e-05 8 7 6 1
4.1170594604344366e-05 8 7 6 2
0.00016786996398876204 8 7 6 3
0.006216371799907733 8 7 6 4
-0.006341334693575054 8 7 6 5
0.0007902054038826423 8 7 6 6
-9.528525940071064e-05 8 7 7 1
-4.377281317175781e-05 8 7 7 2
0.0001741981763975483 8 7 7 3
0.005850046140228582 8 7 7 4
0.003970810832910064 8 7 7 5
-0.0005017321739013989 8 7 7 6
-0.00046467944722187755 8 7 7 7
0.00013285551096238512 8 7 8 1
3.419041958990746e-05 8 7 8 2
9.723073692144955e-05 8 7 8 3
-0.0033920566618114946 8 7 8 4
0.0009502595218224257 8 7 8 5
0.0021633433456349463 8 7 8 6
0.029175505440752224 8 7 8 7
1.1706019640522762 8 8 1 1
0.008210412751777307 8 8 2 1
1.1740728101492974 8 8 2 2
-0.0007417779554067406 8 8 3 1
0.01177549534003223 8 8 3 2
1.1478413547719661 8 8 3 3
-0.00011822034719705067 8 8 4 1
-2.2367643175666346e-05 8 8 4 2
-4.299728258545956e-05 8 8 4 3
0.7813117215507194 8 8 4 4
-0.0001578254261804604 8 8 5 1
-0.0001723204565282188 8 8 5 2
0.0005278762872773277 8 8 5 3
0.003973056316629642 8 8 5 4
0.7833964490313698 8 8 5 5
-1.3028273577198836e-05 8 8 6 1
-0.00026202230462159855 8 8 6 2
-0.0004996434932211377 8 8 6 3
0.0031933378169831383 8 8 6 4
0.010818171084599176 8 8 6 5
0.7961977233133475 8 8 6 6
2.9851604418559442e-05 8 8 7 1
7.058266166020081e-05 8 8 7 2
-0.00032411096509840924 8 8 7 3
0.00719631563463749 8 8 7 4
0.002091308645642276 8 8 7 5
0.0015922575196584687 8 8 7 6
0.771652224191772 8 8 7 7
-0.00023263594435106875 8 8 8 1
-3.526990027026984e-05 8 8 8 2
-3.5818218292078195e-05 8 8 8 3
0.004900269174099109 8 8 8 4
-7.076110863346585e-05 8 8 8 5
-0.0038660731022148783 8 8 8 6
-0.0005292513837533985 8 8 8 7
0.8502380995199101 8 8 8 8
-4.322671064394827e-05 9 1 1 1
-0.00013784151018233915 9 1 2 1
-3.727748244510462e-05 9 1 2 2
-1.1336289676970804e-05 9 1 3 1
-3.61683492454267e-07 9 1 3 2
-3.705658758284469e-05 9 1 3 3
0.00019561731803750758 9 1 4 1
-2.8829104712260196e-05 9 1 4 2
2.5149636339004113e-05 9 1 4 3
-9.542562379821227e-06 9 1 4 4
0.00020285815823791291 9 1 5 1
6.058055751884866e-05 9 1 5 2
-0.00019853377154774703 9 1 5 3
1.269568249603671e-05 9 1 5 4
-1.4242191232976247e-05 9 1 5 5
0.00021505090658648055 9 1 6 1
0.0001356057793341472 9 1 6 2
5.586629077711192e-05 9 1 6 3
1.6325119583866467e-05 9 1 6 4
1.5449835797645216e-05 9 1 6 5
-2.3775446522022997e-06 9 1 6 6
-0.00014573360895166483 9 1 7 1
8.23858507412519e-05 9 1 7 2
-0.00013776426962785795 9 1 7 3
1.1079687629279983e-05 9 1 7 4
4.365099903373053e-06 9 1 7 5
2.261018469566345e-06 9 1 7 6
1.443631485029925e-05 9 1 7 7
0.00016108881033054665 9 1 8 1
-0.00014927731443758894 9 1 8 2
-0.00010959880009465062 9 1 8 3
-2.3801820439394012e-05 9 1 8 4
-2.798982382080683e-06 9 1 8 5
-1.9843227671965344e-06 9 1 8 6
1.244018523099242e-05 9 1 8 7
7.783363959093737e-06 9 1 8 8
4.060095920358098e-06 9 1 9 1
-0.0018339727205181032 9 2 1 1
-2.9875682430165354e-06 9 2 2 1
-0.002150309246798954 9 2 2 2
-1.0732409706226118e-07 9 2 3 1
-1.1496619460508774e-05 9 2 3 2
-0.001835784381777618 9 2 3 3
2.818490005882408e-05 9 2 4 1
-0.00016378265426848028 9 2 4 2
9.129156565284033e-06 9 2 4 3
-6.947119360410085e-05 9 2 4 4
-9.53913395954414e-05 9 2 5 1
0.00016294979396129898 9 2 5 2
-0.0001112542780978984 9 2 5 3
-1.2159664702593665e-05 9 2 5 4
-6.020817100735316e-05 9 2 5 5
-7.276649558720983e-05 9 2 6 1
0.00020613209915347722 9 2 6 2
0.00016521934836760717 9 2 6 3
-1.172905340511815e-05 9 2 6 4
4.652308997587299e-06 9 2 6 5
-4.032503784423841e-05 9 2 6 6
-1.6133783416651016e-05 9 2 7 1
-0.00015424039146489234 9 2 7 2
0.00016936884074102208 9 2 7 3
8.659411513274035e-06 9 2 7 4
-1.718310704244107e-05 9 2 7 5
1.0095930227953983e-05 9 2 7 6
-5.340645139159433e-05 9 2 7 7
0.0001683916615436944 9 2 8 1
0.00019440487156111353 9 2 8 2
6.818454087218925e-05 9 2 8 3
-6.412560011860353e-06 9 2 8 4
-6.750184672506296e-06 9 2 8 5
6.878997571932861e-06 9 2 8 6
-6.3131217240999365e-06 9 2 8 7
-4.2134493900575284e-05 9 2 8 8
5.257885403400134e-08 9 2 9 1
5.905523051642513e-06 9 2 9 2
-0.0001469988618513345 9 3 1 1
-3.238334759115335e-07 9 3 2 1
-0.0001469605061567042 9 3 2 2
-2.7333992203958046e-06 9 3 3 1
-0.00013932843777426942 9 3 3 2
-0.0001697012173882656 9 3 3 3
-3.8387003324787396e-05 9 3 4 1
1.2060815360109787e-05 9 3 4 2
3.2799991567731856e-05 9 3 4 3
-9.041405254110004e-07 9 3 4 4
-6.217092934717212e-05 9 3 5 1
-5.6584078241660444e-05 9 3 5 2
9.892666165845445e-05 9 3 5 3
-6.629793544836991e-06 9 3 5 4
-3.121560167807496e-05 9 3 5 5
-4.6489331401312434e-05 9 3 6 1
3.4110444619918543e-06 9 3 6 2
9.16268097298347e-06 9 3 6 3
7.539333999933902e-06 9 3 6 4
-8.111639428992324e-06 9 3 6 5
1.9850333715543455e-05 9 3 6 6
2.4063975202305963e-05 9 3 7 1
2.1802429268349764e-05 9 3 7 2
3.77893721551922e-05 9 3 7 3
1.1390450009419793e-05 9 3 7 4
2.9508024090786753e-06 9 3 7 5
-2.5994595158431405e-06 9 3 7 6
-2.8588325928709157e-05 9 3 7 7
-4.36358475211637e-05 9 3 8 1
7.92795361893808e-05 9 3 8 2
6.0330663191292e-05 9 3 8 3
1.0107774270762434e-05 9 3 8 4
1.0567263351479654e-05 9 3 8 5
1.438654693518884e-06 9 3 8 6
1.3661825614821445e-05 9 3 8 7
1.1414295036961672e-05 9 3 8 8
-9.376301192215388e-07 9 3 9 1
2.0140674924038635e-07 9 3 9 2
1.1211853131589997e-06 9 3 9 3
0.005740018584309225 9 4 1 1
-3.190963345430344e-06 9 4 2 1
0.005405260032435669 9 4 2 2
-1.8388240674735063e-06 9 4 3 1
1.0992131282753873e-05 9 4 3 2
0.005606323214292625 9 4 3 3
-8.812526310274691e-06 9 4 4 1
1.9427262097154176e-05 9 4 4 2
1.4956924111749417e-05 9 4 4 3
0.005114107988478114 9 4 4 4
6.246689565713528e-07 9 4 5 1
-7.805986052518502e-06 9 4 5 2
-1.3548566522825308e-06 9 4 5 3
5.6375757747989844e-05 9 4 5 4
0.004874359999908886 9 4 5 5
-5.643355492501787e-06 9 4 6 1
-5.061448830984019e-07 9 4 6 2
1.3099490057809787e-05 9 4 6 3
1.606673395856831e-05 9 4 6 4
-3.369479483256518e-05 9 4 6 5
0.004768901561300409 9 4 6 6
1.588847204430715e-05 9 4 7 1
-4.88238353537494e-07 9 4 7 2
2.470492537439011e-05 9 4 7 3
1.2885224871287846e-05 9 4 7 4
2.7118901198381565e-05 9 4 7 5
4.18460566348291e-05 9 4 7 6
0.004734009984157464 9 4 7 7
-5.801941872228665e-06 9 4 8 1
1.8178043363226866e-05 9 4 8 2
1.3609617718403724e-05 9 4 8 3
3.347578913817065e-05 9 4 8 4
4.7332359088671314e-06 9 4 8 5
-4.8209587826989435e-06 9 4 8 6
2.3828309826610375e-05 9 4 8 7
0.004849723138997196 9 4 8 8
-1.271775309660278e-07 9 4 9 1
7.660206712368906e-09 9 4 9 2
7.672789577301732e-08 9 4 9 3
0.00017061086310996847 9 4 9 4
0.003063295242074587 9 5 1 1
-1.0421482983210533e-05 9 5 2 1
0.0029952351203369116 9 5 2 2
-0.000124086763767962 9 5 3 1
-8.189081823915047e-05 9 5 3 2
0.0029555343136595073 9 5 3 3
2.289803235608039e-05 9 5 4 1
-1.2855936239682753e-05 9 5 4 2
-4.067535539188975e-05 9 5 4 3
0.0011414758219681406 9 5 4 4
-1.3656542342184494e-05 9 5 5 1
5.830730318258515e-05 9 5 5 2
-3.6980138191305216e-05 9 5 5 3
0.0001571082239859887 9 5 5 4
0.0013400418876011871 9 5 5 5
4.410089260613131e-05 9 5 6 1
2.0048011795895052e-07 9 5 6 2
-4.365500493497431e-06 9 5 6 3
4.733711879271465e-05 9 5 6 4
6.345617196760254e-05 9 5 6 5
0.001106067620021216 9 5 6 6
-3.244667199869242e-05 9 5 7 1
-1.8236314599151864e-05 9 5 7 2
-1.9344072053271813e-05 9 5 7 3
-6.55076427825748e-05 9 5 7 4
3.8472094114876435e-05 9 5 7 5
-1.4301324904266615e-05 9 5 7 6
0.001187713499550799 9 5 7 7
1.7464523907081924e-06 9 5 8 1
-4.486236741407548e-05 9 5 8 2
-1.2503893164188749e-06 9 5 8 3
3.019952450080451e-05 9 5 8 4
4.724166751050515e-05 9 5 8 5
-3.775824480434126e-05 9 5 8 6
-1.0413090420448035e-05 9 5 8 7
0.0011384361269749723 9 5 8 8
2.9727734820567933e-07 9 5 9 1
-3.5716606797850346e-07 9 5 9 2
-3.3812310629149946e-07 9 5 9 3
-3.592129845363885e-05 9 5 9 4
3.70173361695348e-05 9 5 9 5
0.002269857515461652 9 6 1 1
4.104247767301486e-05 9 6 2 1
0.002233171873013271 9 6 2 2
1.9107974446488134e-07 9 6 3 1
7.737443431710731e-05 9 6 3 2
0.0020645152788493176 9 6 3 3
3.7524374363559455e-05 9 6 4 1
-1.045553483184798e-05 9 6 4 2
4.796886636258589e-05 9 6 4 3
0.0005158662619233057 9 6 4 4
5.592080170048081e-05 9 6 5 1
-2.1747874062723357e-06 9 6 5 2
-2.99221599067351e-05 9 6 5 3
6.0224224109568805e-05 9 6 5 4
0.0005711629745581341 9 6 5 5
1.2817512451443783e-05 9 6 6 1
8.259474059921454e-05 9 6 6 2
2.7524218854463685e-05 9 6 6 3
0.00016631486654151436 9 6 6 4
8.862031314389478e-05 9 6 6 5
0.0007187469706221677 9 6 6 6
6.367577904074131e-06 9 6 7 1
4.320916350897611e-05 9 6 7 2
-2.9648721603516637e-05 9 6 7 3
-5.697495276993635e-06 9 6 7 4
4.491798073608734e-05 9 6 7 5
-5.0226922525692275e-05 9 6 7 6
0.000587734029762732 9 6 7 7
2.220990975122184e-05 9 6 8 1
-1.851233096376406e-05 9 6 8 2
-2.2356602817269044e-05 9 6 8 3
3.1048752920284026e-05 9 6 8 4
2.9322085077702128e-05 9 6 8 5
5.197057501100708e-06 9 6 8 6
2.012256777825122e-05 9 6 8 7
0.0006192478314889692 9 6 8 8
5.971649237807813e-07 9 6 9 1
-1.9911476278550286e-07 9 6 9 2
1.8627583895394104e-08 9 6 9 3
-3.639914918196261e-05 9 6 9 4
2.2817617441617032e-05 9 6 9 5
4.1648575305748866e-05 9 6 9 6
-0.0008024177313524493 9 7 1 1
3.8211556866640945e-05 9 7 2 1
-0.000795143408612489 9 7 2 2
-4.965751282496109e-05 9 7 3 1
8.962066658168179e-05 9 7 3 2
-0.0006213042802486365 9 7 3 3
2.2556416241646933e-05 9 7 4 1
1.093061397339273e-06 9 7 4 2
5.5983265440123e-05 9 7 4 3
0.00022876321393803042 9 7 4 4
3.332587750782188e-05 9 7 5 1
-1.9017904949852885e-05 9 7 5 2
-1.3047741893864937e-05 9 7 5 3
-2.9156120558901556e-05 9 7 5 4
0.0001082002868806485 9 7 5 5
-5.0311010015062256e-06 9 7 6 1
4.434851501212057e-05 9 7 6 2
1.098114024246419e-05 9 7 6 3
9.667700676565919e-06 9 7 6 4
-1.5079505481143375e-05 9 7 6 5
0.00016937862398609384 9 7 6 6
3.0352335222909737e-05 9 7 7 1
6.124601867489882e-05 9 7 7 2
-1.6876073086121813e-05 9 7 7 3
0.00013601612122842826 9 7 7 4
4.892616285865015e-05 9 7 7 5
7.45569482247287e-05 9 7 7 6
8.253175884882967e-05 9 7 7 7
3.354832209568477e-05 9 7 8 1
3.126993846378188e-06 9 7 8 2
-1.698656049737086e-07 9 7 8 3
-5.572296068027194e-05 9 7 8 4
7.004627590818306e-07 9 7 8 5
1.3221511238216282e-05 9 7 8 6
7.646659802271095e-05 9 7 8 7
0.0001949766441528884 9 7 8 8
3.2024569348884714e-07 9 7 9 1
1.5172966179474575e-07 9 7 9 2
1.927163105584092e-07 9 7 9 3
3.275518917359438e-05 9 7 9 4
-1.695673487416804e-05 9 7 9 5
-1.1525378390556742e-05 9 7 9 6
3.0340999253911784e-05 9 7 9 7
0.001728845919748689 9 8 1 1
-4.769086934092076e-06 9 8 2 1
0.0017324979788156047 9 8 2 2
-7.444269426458643e-05 9 8 3 1
7.546094128078636e-05 9 8 3 2
0.0016205910011008104 9 8 3 3
-5.2691200669640634e-05 9 8 4 1
7.746610511157718e-06 9 8 4 2
3.818996182243496e-05 9 8 4 3
0.0001213022375444536 9 8 4 4
-1.833685484503234e-05 9 8 5 1
-4.6632143855376115e-05 9 8 5 2
6.19642442676845e-05 9 8 5 3
1.8012714505261566e-05 9 8 5 4
0.00014678493193316742 9 8 5 5
-5.520794628287278e-05 9 8 6 1
-2.218618855680902e-05 9 8 6 2
-1.7802853426459872e-05 9 8 6 3
4.4215315934318545e-05 9 8 6 4
-1.2363891250144971e-05 9 8 6 5
0.00020789621584136619 9 8 6 6
6.038164597251702e-05 9 8 7 1
-5.779890916834806e-06 9 8 7 2
4.452876532735843e-05 9 8 7 3
-3.372931730104742e-05 9 8 7 4
3.9068748871968126e-05 9 8 7 5
-3.660781089369125e-05 9 8 7 6
8.918886033534611e-05 9 8 7 7
-1.3942342879071977e-05 9 8 8 1
0.0001090708737303614 9 8 8 2
3.646377190079398e-05 9 8 8 3
0.00018866095352865263 9 8 8 4
9.481493115327347e-05 9 8 8 5
1.1370176338327506e-05 9 8 8 6
-6.4694744064190104e-06 9 8 8 7
0.0002302182034955685 9 8 8 8
-7.999271568815464e-07 9 8 9 1
-2.3018604426598504e-07 9 8 9 2
3.8607150529387265e-07 9 8 9 3
-6.160709749463633e-05 9 8 9 4
2.8878526913650492e-05 9 8 9 5